LAMMPS data file generated by STL2LMP v5.2 / 04 Mar 2019 on Tue Mar  5 23:52:03 2019


   5040 atoms
   4032 bonds
      0 angles

   8 atom types
   4 bond types
   1 angle types

   -41.123183978    10.606816022 xlo xhi
   -23.061345457    -0.743945457 ylo yhi
   -34.155000000    34.155000000 zlo zhi
    14.766000000     0.000000000     0.000000000 xy xz yz

Masses

   1  15.999000 # O
   2  40.078000 # Ca
   3  28.085000 # Si
   4   1.007940 # H
   5  15.999000 # Oh
   6  15.999000 # Ow
   7  40.078000 # Cw
   8   1.007940 # Hw

Pair Coeffs

   1   0.0000000000   0.0000000000 # O
   2   0.0000000000   0.0000000000 # Ca
   3   0.0000000000   0.0000000000 # Si
   4   0.0000000000   0.0000000000 # H
   5   0.0000000000   0.0000000000 # Oh
   6   0.0000000000   0.0000000000 # Ow
   7   0.0000000000   0.0000000000 # Cw
   8   0.0000000000   0.0000000000 # Hw

Bond Coeffs

   1     0.0000     0.0000 # Ow-Hw
   2     0.0000     0.0000 # Oh-H
   3     0.0000     0.0000 # O-Si
   4     0.0000     0.0000 # Oh-Si

Angle Coeffs

   1     0.0000     0.0000 # Hw-Ow-Hw

Atoms # full

      1      1   5 -1.000000   -15.617490238   -19.616961269     9.353911892   1   0   0 # Oh
      2      1   2  1.430000   -13.844825306   -18.132856691    -0.000000000   1   0   0 # Ca
      3      1   5 -1.000000    -6.465617248    -1.004281293     2.573008870   0   0   0 # Oh
      4      1   5 -1.000000   -15.722996567   -22.233671973     0.430352811   1   0   0 # Oh
      5      1   5 -1.000000   -21.232427877   -21.937966926     4.804467890   1   0   0 # Oh
      6      1   1 -1.140000   -13.843067660   -20.922526951     7.923956520   1   0   0 # O
      7      1   5 -1.000000   -15.728340238   -19.616961269     0.430352811   1   0   0 # Oh
      8      1   7  1.700000   -15.706247575   -19.494215778     4.508458020   1   0   0 # Cw
      9      1   7  1.700000   -19.401247574   -19.494215778     4.508458020   1   0   0 # Cw
     10      1   5 -1.000000    -2.774329824    -0.976384591     6.967616940   0   0   0 # Oh
     11      1   2  1.430000   -13.844825306   -18.132856691     9.404005870   1   0   0 # Ca
     12      1   5 -1.000000   -17.537540367   -21.759428029     4.850007870   1   0   0 # Oh
     13      1   1 -1.140000   -19.976767660   -20.922526951     2.732398800   1   0   0 # O
     14      1   5 -1.000000   -15.612146566   -22.233671973     9.353911892   1   0   0 # Oh
     15      1   1 -1.140000   -15.099367660   -20.922526951     2.732398800   1   0   0 # O
     16      1   1 -1.140000   -18.609617660   -20.922526951     7.058696900   1   0   0 # O
     17      1   5 -1.000000   -19.305100238   -19.616961269     0.430352811   1   0   0 # Oh
     18      1   3  1.720000   -15.963997660   -20.922526951     1.275119440   1   0   0 # Si
     19      1   2  1.430000   -17.539825305   -18.132856691    -0.000000000   1   0   0 # Ca
     20      1   3  1.720000   -17.537484122   -21.848697477     6.421137180   1   0   0 # Si
     21      1   3  1.720000   -15.372797660   -20.922526951     8.470436280   1   0   0 # Si
     22      1   1 -1.140000   -16.318717660   -20.922526951     7.058696900   1   0   0 # O
     23      1   5 -1.000000   -19.423340238   -19.616961269     9.353911892   1   0   0 # Oh
     24      1   1 -1.140000   -17.538067660   -20.922526951     1.753289230   1   0   0 # O
     25      1   5 -1.000000   -19.425386567   -22.233671973     9.353911892   1   0   0 # Oh
     26      1   5 -1.000000   -19.307146567   -22.233671973     0.430352811   1   0   0 # Oh
     27      1   3  1.720000   -19.067797660   -20.922526951     1.275119440   1   0   0 # Si
     28      1   3  1.720000   -21.232427877   -21.937966926     3.210568590   1   0   0 # Si
     29      1   3  1.720000   -19.658997661   -20.922526951     8.493206270   1   0   0 # Si
     30      1   2  1.430000   -17.539825305   -18.132856691     9.404005870   1   0   0 # Ca
     31      1   5 -1.000000   -17.612902728   -19.438422373    20.738906892   1   0   0 # Oh
     32      1   2  1.430000   -19.385567660   -20.922526951    11.384995000   1   0   0 # Ca
     33      1   5 -1.000000   -11.998836881   -15.733740267    13.958003870   1   0   0 # Oh
     34      1   5 -1.000000   -17.507396399   -16.821711669    11.815347811   1   0   0 # Oh
     35      1   5 -1.000000   -11.997965089   -17.117416716    16.189462890   1   0   0 # Oh
     36      1   1 -1.140000   -11.997325305   -18.132856691    19.308951520   1   0   0 # O
     37      1   5 -1.000000   -17.502052728   -19.438422372    11.815347811   1   0   0 # Oh
     38      1   7  1.700000   -17.524145391   -19.561167864    15.893453020   1   0   0 # Cw
     39      1   7  1.700000   -13.829145391   -19.561167864    15.893453020   1   0   0 # Cw
     40      1   5 -1.000000   -15.690124304   -15.761636970    18.352611940   1   0   0 # Oh
     41      1   2  1.430000   -19.385567660   -20.922526951    20.789000870   1   0   0 # Ca
     42      1   5 -1.000000   -15.692852599   -17.295955613    16.235002870   1   0   0 # Oh
     43      1   1 -1.140000   -13.253625306   -18.132856691    14.117393800   1   0   0 # O
     44      1   5 -1.000000   -17.618246399   -16.821711669    20.738906892   1   0   0 # Oh
     45      1   1 -1.140000   -18.131025305   -18.132856691    14.117393800   1   0   0 # O
     46      1   1 -1.140000   -14.620775306   -18.132856691    18.443691900   1   0   0 # O
     47      1   5 -1.000000   -13.925292728   -19.438422372    11.815347811   1   0   0 # Oh
     48      1   3  1.720000   -17.266395305   -18.132856691    12.660114440   1   0   0 # Si
     49      1   2  1.430000   -15.690567661   -20.922526951    11.384995000   1   0   0 # Ca
     50      1   3  1.720000   -15.692908844   -17.206686165    17.806132180   1   0   0 # Si
     51      1   3  1.720000   -17.857595306   -18.132856691    19.855431280   1   0   0 # Si
     52      1   1 -1.140000   -16.911675305   -18.132856691    18.443691900   1   0   0 # O
     53      1   5 -1.000000   -13.807052727   -19.438422372    20.738906892   1   0   0 # Oh
     54      1   1 -1.140000   -15.692325305   -18.132856691    13.138284230   1   0   0 # O
     55      1   5 -1.000000   -13.805006399   -16.821711669    20.738906892   1   0   0 # Oh
     56      1   5 -1.000000   -13.923246399   -16.821711668    11.815347811   1   0   0 # Oh
     57      1   3  1.720000   -14.162595305   -18.132856691    12.660114440   1   0   0 # Si
     58      1   3  1.720000   -11.997965089   -17.117416716    14.595563590   1   0   0 # Si
     59      1   3  1.720000   -13.571395305   -18.132856691    19.878201270   1   0   0 # Si
     60      1   2  1.430000   -15.690567661   -20.922526951    20.789000870   1   0   0 # Ca
     61      1   5 -1.000000   -11.926005529   -14.037620749     9.353911892   1   0   0 # Oh
     62      1   2  1.430000   -10.153340596   -12.553516171    -0.000000000   1   0   0 # Ca
     63      1   5 -1.000000   -17.540071376   -17.742302854     2.573008870   1   0   0 # Oh
     64      1   5 -1.000000   -12.031511858   -16.654331453     0.430352811   1   0   0 # Oh
     65      1   5 -1.000000   -17.540943168   -16.358626405     4.804467890   1   0   0 # Oh
     66      1   1 -1.140000   -10.151582951   -15.343186431     7.923956520   1   0   0 # O
     67      1   5 -1.000000   -12.036855529   -14.037620749     0.430352811   1   0   0 # Oh
     68      1   7  1.700000   -12.014762865   -13.914875258     4.508458020   1   0   0 # Cw
     69      1   7  1.700000   -15.709762865   -13.914875258     4.508458020   1   0   0 # Cw
     70      1   5 -1.000000   -13.848783952   -17.714406152     6.967616940   1   0   0 # Oh
     71      1   2  1.430000   -10.153340596   -12.553516171     9.404005870   1   0   0 # Ca
     72      1   5 -1.000000   -13.846055657   -16.180087509     4.850007870   1   0   0 # Oh
     73      1   1 -1.140000   -16.285282950   -15.343186431     2.732398800   1   0   0 # O
     74      1   5 -1.000000   -11.920661857   -16.654331453     9.353911892   1   0   0 # Oh
     75      1   1 -1.140000   -11.407882951   -15.343186431     2.732398800   1   0   0 # O
     76      1   1 -1.140000   -14.918132951   -15.343186431     7.058696900   1   0   0 # O
     77      1   5 -1.000000   -15.613615529   -14.037620749     0.430352811   1   0   0 # Oh
     78      1   3  1.720000   -12.272512950   -15.343186431     1.275119440   1   0   0 # Si
     79      1   2  1.430000   -13.848340596   -12.553516170    -0.000000000   1   0   0 # Ca
     80      1   3  1.720000   -13.845999413   -16.269356957     6.421137180   1   0   0 # Si
     81      1   3  1.720000   -11.681312951   -15.343186431     8.470436280   1   0   0 # Si
     82      1   1 -1.140000   -12.627232950   -15.343186430     7.058696900   1   0   0 # O
     83      1   5 -1.000000   -15.731855528   -14.037620749     9.353911892   1   0   0 # Oh
     84      1   1 -1.140000   -13.846582950   -15.343186430     1.753289230   1   0   0 # O
     85      1   5 -1.000000   -15.733901857   -16.654331453     9.353911892   1   0   0 # Oh
     86      1   5 -1.000000   -15.615661858   -16.654331453     0.430352811   1   0   0 # Oh
     87      1   3  1.720000   -15.376312950   -15.343186430     1.275119440   1   0   0 # Si
     88      1   3  1.720000   -17.540943168   -16.358626405     3.210568590   1   0   0 # Si
     89      1   3  1.720000   -15.967512951   -15.343186431     8.493206270   1   0   0 # Si
     90      1   2  1.430000   -13.848340596   -12.553516170     9.404005870   1   0   0 # Ca
     91      1   5 -1.000000   -13.921418018   -13.859081853    20.738906892   1   0   0 # Oh
     92      1   2  1.430000   -15.694082951   -15.343186431    11.384995000   1   0   0 # Ca
     93      1   5 -1.000000    -8.307352171   -10.154399747    13.958003870   1   0   0 # Oh
     94      1   5 -1.000000   -13.815911689   -11.242371148    11.815347811   1   0   0 # Oh
     95      1   5 -1.000000    -8.306480379   -11.538076196    16.189462890   1   0   0 # Oh
     96      1   1 -1.140000    -8.305840596   -12.553516171    19.308951520   1   0   0 # O
     97      1   5 -1.000000   -13.810568018   -13.859081852    11.815347811   1   0   0 # Oh
     98      1   7  1.700000   -13.832660682   -13.981827343    15.893453020   1   0   0 # Cw
     99      1   7  1.700000   -10.137660682   -13.981827344    15.893453020   1   0   0 # Cw
    100      1   5 -1.000000   -11.998639594   -10.182296450    18.352611940   1   0   0 # Oh
    101      1   2  1.430000   -15.694082951   -15.343186431    20.789000870   1   0   0 # Ca
    102      1   5 -1.000000   -12.001367890   -11.716615092    16.235002870   1   0   0 # Oh
    103      1   1 -1.140000    -9.562140596   -12.553516171    14.117393800   1   0   0 # O
    104      1   5 -1.000000   -13.926761689   -11.242371149    20.738906892   1   0   0 # Oh
    105      1   1 -1.140000   -14.439540595   -12.553516171    14.117393800   1   0   0 # O
    106      1   1 -1.140000   -10.929290596   -12.553516171    18.443691900   1   0   0 # O
    107      1   5 -1.000000   -10.233808018   -13.859081852    11.815347811   1   0   0 # Oh
    108      1   3  1.720000   -13.574910596   -12.553516171    12.660114440   1   0   0 # Si
    109      1   2  1.430000   -11.999082951   -15.343186431    11.384995000   1   0   0 # Ca
    110      1   3  1.720000   -12.001424135   -11.627345644    17.806132180   1   0   0 # Si
    111      1   3  1.720000   -14.166110596   -12.553516171    19.855431280   1   0   0 # Si
    112      1   1 -1.140000   -13.220190596   -12.553516170    18.443691900   1   0   0 # O
    113      1   5 -1.000000   -10.115568017   -13.859081852    20.738906892   1   0   0 # Oh
    114      1   1 -1.140000   -12.000840596   -12.553516170    13.138284230   1   0   0 # O
    115      1   5 -1.000000   -10.113521690   -11.242371148    20.738906892   1   0   0 # Oh
    116      1   5 -1.000000   -10.231761689   -11.242371148    11.815347811   1   0   0 # Oh
    117      1   3  1.720000   -10.471110595   -12.553516170    12.660114440   1   0   0 # Si
    118      1   3  1.720000    -8.306480379   -11.538076196    14.595563590   1   0   0 # Si
    119      1   3  1.720000    -9.879910596   -12.553516170    19.878201270   1   0   0 # Si
    120      1   2  1.430000   -11.999082951   -15.343186431    20.789000870   1   0   0 # Ca
    121      1   5 -1.000000    -8.234520820    -8.458280228     9.353911892   1   0   0 # Oh
    122      1   2  1.430000    -6.461855887    -6.974175650    -0.000000000   1   0   0 # Ca
    123      1   5 -1.000000   -13.848586667   -12.162962334     2.573008870   1   0   0 # Oh
    124      1   5 -1.000000    -8.340027148   -11.074990932     0.430352811   1   0   0 # Oh
    125      1   5 -1.000000   -13.849458459   -10.779285885     4.804467890   1   0   0 # Oh
    126      1   1 -1.140000    -6.460098241    -9.763845910     7.923956520   1   0   0 # O
    127      1   5 -1.000000    -8.345370819    -8.458280229     0.430352811   1   0   0 # Oh
    128      1   7  1.700000    -8.323278156    -8.335534738     4.508458020   1   0   0 # Cw
    129      1   7  1.700000   -12.018278155    -8.335534737     4.508458020   1   0   0 # Cw
    130      1   5 -1.000000   -10.157299243   -12.135065632     6.967616940   1   0   0 # Oh
    131      1   2  1.430000    -6.461855887    -6.974175650     9.404005870   1   0   0 # Ca
    132      1   5 -1.000000   -10.154570948   -10.600746989     4.850007870   1   0   0 # Oh
    133      1   1 -1.140000   -12.593798241    -9.763845910     2.732398800   1   0   0 # O
    134      1   5 -1.000000    -8.229177148   -11.074990933     9.353911892   1   0   0 # Oh
    135      1   1 -1.140000    -7.716398241    -9.763845911     2.732398800   1   0   0 # O
    136      1   1 -1.140000   -11.226648241    -9.763845910     7.058696900   1   0   0 # O
    137      1   5 -1.000000   -11.922130819    -8.458280229     0.430352811   1   0   0 # Oh
    138      1   3  1.720000    -8.581028241    -9.763845910     1.275119440   1   0   0 # Si
    139      1   2  1.430000   -10.156855887    -6.974175650    -0.000000000   1   0   0 # Ca
    140      1   3  1.720000   -10.154514703   -10.690016437     6.421137180   1   0   0 # Si
    141      1   3  1.720000    -7.989828241    -9.763845910     8.470436280   1   0   0 # Si
    142      1   1 -1.140000    -8.935748241    -9.763845910     7.058696900   1   0   0 # O
    143      1   5 -1.000000   -12.040370819    -8.458280229     9.353911892   1   0   0 # Oh
    144      1   1 -1.140000   -10.155098241    -9.763845910     1.753289230   1   0   0 # O
    145      1   5 -1.000000   -12.042417148   -11.074990933     9.353911892   1   0   0 # Oh
    146      1   5 -1.000000   -11.924177149   -11.074990933     0.430352811   1   0   0 # Oh
    147      1   3  1.720000   -11.684828241    -9.763845910     1.275119440   1   0   0 # Si
    148      1   3  1.720000   -13.849458459   -10.779285885     3.210568590   1   0   0 # Si
    149      1   3  1.720000   -12.276028242    -9.763845911     8.493206270   1   0   0 # Si
    150      1   2  1.430000   -10.156855887    -6.974175650     9.404005870   1   0   0 # Ca
    151      1   5 -1.000000   -10.229933309    -8.279741332    20.738906892   1   0   0 # Oh
    152      1   2  1.430000   -12.002598241    -9.763845910    11.384995000   1   0   0 # Ca
    153      1   5 -1.000000    -4.615867462    -4.575059227    13.958003870   1   0   0 # Oh
    154      1   5 -1.000000   -10.124426980    -5.663030628    11.815347811   1   0   0 # Oh
    155      1   5 -1.000000    -4.614995670    -5.958735675    16.189462890   1   0   0 # Oh
    156      1   1 -1.140000    -4.614355887    -6.974175650    19.308951520   1   0   0 # O
    157      1   5 -1.000000   -10.119083309    -8.279741332    11.815347811   1   0   0 # Oh
    158      1   7  1.700000   -10.141175973    -8.402486823    15.893453020   1   0   0 # Cw
    159      1   7  1.700000    -6.446175972    -8.402486824    15.893453020   1   0   0 # Cw
    160      1   5 -1.000000    -8.307154885    -4.602955929    18.352611940   1   0   0 # Oh
    161      1   2  1.430000   -12.002598241    -9.763845910    20.789000870   1   0   0 # Ca
    162      1   5 -1.000000    -8.309883181    -6.137274572    16.235002870   1   0   0 # Oh
    163      1   1 -1.140000    -5.870655887    -6.974175651    14.117393800   1   0   0 # O
    164      1   5 -1.000000   -10.235276980    -5.663030629    20.738906892   1   0   0 # Oh
    165      1   1 -1.140000   -10.748055886    -6.974175650    14.117393800   1   0   0 # O
    166      1   1 -1.140000    -7.237805887    -6.974175650    18.443691900   1   0   0 # O
    167      1   5 -1.000000    -6.542323309    -8.279741332    11.815347811   1   0   0 # Oh
    168      1   3  1.720000    -9.883425887    -6.974175651    12.660114440   1   0   0 # Si
    169      1   2  1.430000    -8.307598242    -9.763845910    11.384995000   1   0   0 # Ca
    170      1   3  1.720000    -8.309939425    -6.048005124    17.806132180   1   0   0 # Si
    171      1   3  1.720000   -10.474625887    -6.974175650    19.855431280   1   0   0 # Si
    172      1   1 -1.140000    -9.528705886    -6.974175650    18.443691900   1   0   0 # O
    173      1   5 -1.000000    -6.424083308    -8.279741332    20.738906892   1   0   0 # Oh
    174      1   1 -1.140000    -8.309355886    -6.974175650    13.138284230   1   0   0 # O
    175      1   5 -1.000000    -6.422036980    -5.663030628    20.738906892   1   0   0 # Oh
    176      1   5 -1.000000    -6.540276980    -5.663030628    11.815347811   1   0   0 # Oh
    177      1   3  1.720000    -6.779625886    -6.974175650    12.660114440   1   0   0 # Si
    178      1   3  1.720000    -4.614995670    -5.958735675    14.595563590   1   0   0 # Si
    179      1   3  1.720000    -6.188425887    -6.974175650    19.878201270   1   0   0 # Si
    180      1   2  1.430000    -8.307598242    -9.763845910    20.789000870   1   0   0 # Ca
    181      1   5 -1.000000    -4.543036110    -2.878939708     9.353911892   1   0   0 # Oh
    182      1   2  1.430000    -2.770371178    -1.394835130    -0.000000000   1   0   0 # Ca
    183      1   5 -1.000000   -10.157101957    -6.583621814     2.573008870   1   0   0 # Oh
    184      1   5 -1.000000    -4.648542439    -5.495650412     0.430352811   1   0   0 # Oh
    185      1   5 -1.000000   -10.157973749    -5.199945365     4.804467890   1   0   0 # Oh
    186      1   1 -1.140000    -2.768613532    -4.184505390     7.923956520   1   0   0 # O
    187      1   5 -1.000000    -4.653886110    -2.878939708     0.430352811   1   0   0 # Oh
    188      1   7  1.700000    -4.631793447    -2.756194217     4.508458020   1   0   0 # Cw
    189      1   7  1.700000    -8.326793446    -2.756194217     4.508458020   1   0   0 # Cw
    190      1   5 -1.000000    -6.465814533    -6.555725112     6.967616940   1   0   0 # Oh
    191      1   2  1.430000    -2.770371178    -1.394835130     9.404005870   1   0   0 # Ca
    192      1   5 -1.000000    -6.463086239    -5.021406468     4.850007870   1   0   0 # Oh
    193      1   1 -1.140000    -8.902313531    -4.184505390     2.732398800   1   0   0 # O
    194      1   5 -1.000000    -4.537692438    -5.495650412     9.353911892   1   0   0 # Oh
    195      1   1 -1.140000    -4.024913532    -4.184505391     2.732398800   1   0   0 # O
    196      1   1 -1.140000    -7.535163532    -4.184505390     7.058696900   1   0   0 # O
    197      1   5 -1.000000    -8.230646110    -2.878939709     0.430352811   1   0   0 # Oh
    198      1   3  1.720000    -4.889543532    -4.184505390     1.275119440   1   0   0 # Si
    199      1   2  1.430000    -6.465371177    -1.394835130    -0.000000000   1   0   0 # Ca
    200      1   3  1.720000    -6.463029994    -5.110675916     6.421137180   1   0   0 # Si
    201      1   3  1.720000    -4.298343532    -4.184505390     8.470436280   1   0   0 # Si
    202      1   1 -1.140000    -5.244263532    -4.184505390     7.058696900   1   0   0 # O
    203      1   5 -1.000000    -8.348886110    -2.878939708     9.353911892   1   0   0 # Oh
    204      1   1 -1.140000    -6.463613532    -4.184505390     1.753289230   1   0   0 # O
    205      1   5 -1.000000    -8.350932439    -5.495650412     9.353911892   1   0   0 # Oh
    206      1   5 -1.000000    -8.232692439    -5.495650413     0.430352811   1   0   0 # Oh
    207      1   3  1.720000    -7.993343532    -4.184505390     1.275119440   1   0   0 # Si
    208      1   3  1.720000   -10.157973749    -5.199945365     3.210568590   1   0   0 # Si
    209      1   3  1.720000    -8.584543533    -4.184505390     8.493206270   1   0   0 # Si
    210      1   2  1.430000    -6.465371177    -1.394835130     9.404005870   1   0   0 # Ca
    211      1   5 -1.000000    -6.538448600    -2.700400812    20.738906892   1   0   0 # Oh
    212      1   2  1.430000    -8.311113532    -4.184505390    11.384995000   1   0   0 # Ca
    213      1   5 -1.000000   -15.690321590   -21.313080788    13.958003870   2   0   0 # Oh
    214      1   5 -1.000000   -21.198881108   -22.401052189    11.815347811   2   0   0 # Oh
    215      1   5 -1.000000   -15.689449798   -22.696757236    16.189462890   2   0   0 # Oh
    216      1   1 -1.140000    -0.922871177    -1.394835130    19.308951520   1   0   0 # O
    217      1   5 -1.000000    -6.427598600    -2.700400812    11.815347811   1   0   0 # Oh
    218      1   7  1.700000    -6.449691263    -2.823146303    15.893453020   1   0   0 # Cw
    219      1   7  1.700000    -2.754691263    -2.823146304    15.893453020   1   0   0 # Cw
    220      1   5 -1.000000   -19.381609013   -21.340977490    18.352611940   2   0   0 # Oh
    221      1   2  1.430000    -8.311113532    -4.184505390    20.789000870   1   0   0 # Ca
    222      1   5 -1.000000   -19.384337309   -22.875296133    16.235002870   2   0   0 # Oh
    223      1   1 -1.140000    -2.179171177    -1.394835131    14.117393800   1   0   0 # O
    224      1   5 -1.000000   -21.309731108   -22.401052189    20.738906892   2   0   0 # Oh
    225      1   1 -1.140000    -7.056571177    -1.394835130    14.117393800   1   0   0 # O
    226      1   1 -1.140000    -3.546321178    -1.394835130    18.443691900   1   0   0 # O
    227      1   5 -1.000000    -2.850838600    -2.700400812    11.815347811   1   0   0 # Oh
    228      1   3  1.720000    -6.191941177    -1.394835130    12.660114440   1   0   0 # Si
    229      1   2  1.430000    -4.616113532    -4.184505390    11.384995000   1   0   0 # Ca
    230      1   3  1.720000   -19.384393553   -22.786026685    17.806132180   2   0   0 # Si
    231      1   3  1.720000    -6.783141178    -1.394835130    19.855431280   1   0   0 # Si
    232      1   1 -1.140000    -5.837221177    -1.394835130    18.443691900   1   0   0 # O
    233      1   5 -1.000000    -2.732598599    -2.700400812    20.738906892   1   0   0 # Oh
    234      1   1 -1.140000    -4.617871177    -1.394835130    13.138284230   1   0   0 # O
    235      1   5 -1.000000   -17.496491108   -22.401052189    20.738906892   2   0   0 # Oh
    236      1   5 -1.000000   -17.614731108   -22.401052189    11.815347811   2   0   0 # Oh
    237      1   3  1.720000    -3.088141177    -1.394835130    12.660114440   1   0   0 # Si
    238      1   3  1.720000   -15.689449798   -22.696757236    14.595563590   2   0   0 # Si
    239      1   3  1.720000    -2.496941177    -1.394835130    19.878201270   1   0   0 # Si
    240      1   2  1.430000    -4.616113532    -4.184505390    20.789000870   1   0   0 # Ca
    241      1   5 -1.000000   -23.007490238   -19.616961269     9.353911892   1   0   0 # Oh
    242      1   2  1.430000   -21.234825305   -18.132856691    -0.000000000   1   0   0 # Ca
    243      1   5 -1.000000   -13.855617248    -1.004281294     2.573008870   0   0   0 # Oh
    244      1   5 -1.000000   -23.112996567   -22.233671973     0.430352811   1   0   0 # Oh
    245      1   5 -1.000000   -28.622427878   -21.937966926     4.804467890   1   0   0 # Oh
    246      1   1 -1.140000   -21.233067660   -20.922526951     7.923956520   1   0   0 # O
    247      1   5 -1.000000   -23.118340239   -19.616961269     0.430352811   1   0   0 # Oh
    248      1   7  1.700000   -23.096247574   -19.494215777     4.508458020   1   0   0 # Cw
    249      1   7  1.700000   -26.791247575   -19.494215778     4.508458020   1   0   0 # Cw
    250      1   5 -1.000000   -10.164329824    -0.976384591     6.967616940   0   0   0 # Oh
    251      1   2  1.430000   -21.234825305   -18.132856691     9.404005870   1   0   0 # Ca
    252      1   5 -1.000000   -24.927540367   -21.759428029     4.850007870   1   0   0 # Oh
    253      1   1 -1.140000   -27.366767660   -20.922526951     2.732398800   1   0   0 # O
    254      1   5 -1.000000   -23.002146567   -22.233671973     9.353911892   1   0   0 # Oh
    255      1   1 -1.140000   -22.489367660   -20.922526950     2.732398800   1   0   0 # O
    256      1   1 -1.140000   -25.999617660   -20.922526951     7.058696900   1   0   0 # O
    257      1   5 -1.000000   -26.695100239   -19.616961269     0.430352811   1   0   0 # Oh
    258      1   3  1.720000   -23.353997660   -20.922526951     1.275119440   1   0   0 # Si
    259      1   2  1.430000   -24.929825306   -18.132856691    -0.000000000   1   0   0 # Ca
    260      1   3  1.720000   -24.927484122   -21.848697478     6.421137180   1   0   0 # Si
    261      1   3  1.720000   -22.762797660   -20.922526951     8.470436280   1   0   0 # Si
    262      1   1 -1.140000   -23.708717660   -20.922526951     7.058696900   1   0   0 # O
    263      1   5 -1.000000   -26.813340238   -19.616961269     9.353911892   1   0   0 # Oh
    264      1   1 -1.140000   -24.928067660   -20.922526951     1.753289230   1   0   0 # O
    265      1   5 -1.000000   -26.815386566   -22.233671973     9.353911892   1   0   0 # Oh
    266      1   5 -1.000000   -26.697146566   -22.233671973     0.430352811   1   0   0 # Oh
    267      1   3  1.720000   -26.457797660   -20.922526951     1.275119440   1   0   0 # Si
    268      1   3  1.720000   -28.622427878   -21.937966926     3.210568590   1   0   0 # Si
    269      1   3  1.720000   -27.048997660   -20.922526951     8.493206270   1   0   0 # Si
    270      1   2  1.430000   -24.929825306   -18.132856691     9.404005870   1   0   0 # Ca
    271      1   5 -1.000000   -25.002902727   -19.438422372    20.738906892   1   0   0 # Oh
    272      1   2  1.430000   -26.775567660   -20.922526951    11.384995000   1   0   0 # Ca
    273      1   5 -1.000000   -19.388836880   -15.733740266    13.958003870   1   0   0 # Oh
    274      1   5 -1.000000   -24.897396399   -16.821711669    11.815347811   1   0   0 # Oh
    275      1   5 -1.000000   -19.387965088   -17.117416716    16.189462890   1   0   0 # Oh
    276      1   1 -1.140000   -19.387325306   -18.132856691    19.308951520   1   0   0 # O
    277      1   5 -1.000000   -24.892052727   -19.438422373    11.815347811   1   0   0 # Oh
    278      1   7  1.700000   -24.914145391   -19.561167864    15.893453020   1   0   0 # Cw
    279      1   7  1.700000   -21.219145391   -19.561167864    15.893453020   1   0   0 # Cw
    280      1   5 -1.000000   -23.080124304   -15.761636970    18.352611940   1   0   0 # Oh
    281      1   2  1.430000   -26.775567660   -20.922526951    20.789000870   1   0   0 # Ca
    282      1   5 -1.000000   -23.082852599   -17.295955613    16.235002870   1   0   0 # Oh
    283      1   1 -1.140000   -20.643625305   -18.132856690    14.117393800   1   0   0 # O
    284      1   5 -1.000000   -25.008246398   -16.821711668    20.738906892   1   0   0 # Oh
    285      1   1 -1.140000   -25.521025305   -18.132856691    14.117393800   1   0   0 # O
    286      1   1 -1.140000   -22.010775305   -18.132856691    18.443691900   1   0   0 # O
    287      1   5 -1.000000   -21.315292727   -19.438422373    11.815347811   1   0   0 # Oh
    288      1   3  1.720000   -24.656395305   -18.132856690    12.660114440   1   0   0 # Si
    289      1   2  1.430000   -23.080567660   -20.922526951    11.384995000   1   0   0 # Ca
    290      1   3  1.720000   -23.082908843   -17.206686165    17.806132180   1   0   0 # Si
    291      1   3  1.720000   -25.247595305   -18.132856691    19.855431280   1   0   0 # Si
    292      1   1 -1.140000   -24.301675305   -18.132856691    18.443691900   1   0   0 # O
    293      1   5 -1.000000   -21.197052727   -19.438422372    20.738906892   1   0   0 # Oh
    294      1   1 -1.140000   -23.082325305   -18.132856691    13.138284230   1   0   0 # O
    295      1   5 -1.000000   -21.195006399   -16.821711669    20.738906892   1   0   0 # Oh
    296      1   5 -1.000000   -21.313246399   -16.821711668    11.815347811   1   0   0 # Oh
    297      1   3  1.720000   -21.552595305   -18.132856691    12.660114440   1   0   0 # Si
    298      1   3  1.720000   -19.387965088   -17.117416716    14.595563590   1   0   0 # Si
    299      1   3  1.720000   -20.961395306   -18.132856690    19.878201270   1   0   0 # Si
    300      1   2  1.430000   -23.080567660   -20.922526951    20.789000870   1   0   0 # Ca
    301      1   5 -1.000000   -19.316005529   -14.037620749     9.353911892   1   0   0 # Oh
    302      1   2  1.430000   -17.543340596   -12.553516171    -0.000000000   1   0   0 # Ca
    303      1   5 -1.000000   -24.930071376   -17.742302855     2.573008870   1   0   0 # Oh
    304      1   5 -1.000000   -19.421511857   -16.654331453     0.430352811   1   0   0 # Oh
    305      1   5 -1.000000   -24.930943168   -16.358626405     4.804467890   1   0   0 # Oh
    306      1   1 -1.140000   -17.541582951   -15.343186431     7.923956520   1   0   0 # O
    307      1   5 -1.000000   -19.426855529   -14.037620749     0.430352811   1   0   0 # Oh
    308      1   7  1.700000   -19.404762865   -13.914875257     4.508458020   1   0   0 # Cw