LAMMPS data file generated by STL2LMP v6.0 / 14 Aug 2019 on Sun Oct 27 16:12:44 2019

   5659 atoms
   1397 bonds
    518 angles

   8 atom types
   4 bond types
   1 angle types

   -41.123183978    10.606816022 xlo xhi
   -23.061345457    -0.743945457 ylo yhi
   -34.155000000    34.155000000 zlo zhi
    14.766000000     0.000000000     0.000000000 xy xz yz

Masses

   1  15.999000 # O
   2  40.078000 # Ca
   3  28.085000 # Si
   4   1.007940 # H
   5  15.999000 # Oh
   6  15.999000 # Ow
   7  40.078000 # Cw
   8   1.007940 # Hw

Pair Coeffs

   1   0.0000000000   0.0000000000 # O
   2   0.0000000000   0.0000000000 # Ca
   3   0.0000000000   0.0000000000 # Si
   4   0.0000000000   0.0000000000 # H
   5   0.0000000000   0.0000000000 # Oh
   6   0.0000000000   0.0000000000 # Ow
   7   0.0000000000   0.0000000000 # Cw
   8   0.0000000000   0.0000000000 # Hw

Bond Coeffs

   1     0.0000     0.0000 # Ow-Hw
   2     0.0000     0.0000 # Oh-H
   3     0.0000     0.0000 # O-Si
   4     0.0000     0.0000 # Oh-Si

Angle Coeffs

   1     0.0000     0.0000 # Hw-Ow-Hw

Atoms # full

      1      1   1    -1.248333050   -15.617490238   -19.616961269     9.353911892   1   0   0 # O
      2      1   2     1.430000000   -13.844825306   -18.132856691    -0.000000000   1   0   0 # Ca
      3      1   5    -1.108333050    -6.465617248    -1.004281293     2.573008870   0   0   0 # Oh
      4      1   1    -1.248333050   -15.722996567   -22.233671973     0.430352811   1   0   0 # O
      5      1   1    -1.248333050   -13.843067660   -20.922526951     7.923956520   1   0   0 # O
      6      1   1    -1.248333050   -15.728340238   -19.616961269     0.430352811   1   0   0 # O
      7      1   7     1.700000000   -15.706247575   -19.494215778     4.508458020   1   0   0 # Cw
      8      1   7     1.700000000   -19.401247574   -19.494215778     4.508458020   1   0   0 # Cw
      9      1   5    -1.108333050    -2.774329824    -0.976384591     6.967616940   0   0   0 # Oh
     10      1   2     1.430000000   -13.844825306   -18.132856691     9.404005870   1   0   0 # Ca
     11      1   1    -1.248333050   -15.612146566   -22.233671973     9.353911892   1   0   0 # O
     12      1   1    -1.248333050   -15.099367660   -20.922526951     2.732398800   1   0   0 # O
     13      1   3     1.720000000   -15.963997660   -20.922526951     1.275119440   1   0   0 # Si
     14      1   2     1.430000000   -17.539825305   -18.132856691    -0.000000000   1   0   0 # Ca
     15      1   3     1.720000000   -15.372797660   -20.922526951     8.470436280   1   0   0 # Si
     16      1   1    -1.248333050   -16.318717660   -20.922526951     7.058696900   1   0   0 # O
     17      1   1    -1.248333050   -17.538067660   -20.922526951     1.753289230   1   0   0 # O
     18      1   2     1.430000000   -17.539825305   -18.132856691     9.404005870   1   0   0 # Ca
     19      1   1    -1.248333050   -17.612902728   -19.438422373    20.738906892   1   0   0 # O
     20      1   2     1.430000000   -19.385567660   -20.922526951    11.384995000   1   0   0 # Ca
     21      1   5    -1.108333050   -11.998836881   -15.733740267    13.958003870   1   0   0 # Oh
     22      1   1    -1.248333050   -17.507396399   -16.821711669    11.815347811   1   0   0 # O
     23      1   1    -1.248333050   -11.997325305   -18.132856691    19.308951520   1   0   0 # O
     24      1   1    -1.248333050   -17.502052728   -19.438422372    11.815347811   1   0   0 # O
     25      1   7     1.700000000   -17.524145391   -19.561167864    15.893453020   1   0   0 # Cw
     26      1   7     1.700000000   -13.829145391   -19.561167864    15.893453020   1   0   0 # Cw
     27      1   5    -1.108333050   -15.690124304   -15.761636970    18.352611940   1   0   0 # Oh
     28      1   2     1.430000000   -19.385567660   -20.922526951    20.789000870   1   0   0 # Ca
     29      1   1    -1.248333050   -17.618246399   -16.821711669    20.738906892   1   0   0 # O
     30      1   1    -1.248333050   -18.131025305   -18.132856691    14.117393800   1   0   0 # O
     31      1   1    -1.248333050   -14.620775306   -18.132856691    18.443691900   1   0   0 # O
     32      1   1    -1.248333050   -13.925292728   -19.438422372    11.815347811   1   0   0 # O
     33      1   3     1.720000000   -17.266395305   -18.132856691    12.660114440   1   0   0 # Si
     34      1   2     1.430000000   -15.690567661   -20.922526951    11.384995000   1   0   0 # Ca
     35      1   3     1.720000000   -17.857595306   -18.132856691    19.855431280   1   0   0 # Si
     36      1   1    -1.248333050   -13.807052727   -19.438422372    20.738906892   1   0   0 # O
     37      1   1    -1.248333050   -15.692325305   -18.132856691    13.138284230   1   0   0 # O
     38      1   1    -1.248333050   -13.805006399   -16.821711669    20.738906892   1   0   0 # O
     39      1   1    -1.248333050   -13.923246399   -16.821711668    11.815347811   1   0   0 # O
     40      1   3     1.720000000   -14.162595305   -18.132856691    12.660114440   1   0   0 # Si
     41      1   3     1.720000000   -13.571395305   -18.132856691    19.878201270   1   0   0 # Si
     42      1   2     1.430000000   -15.690567661   -20.922526951    20.789000870   1   0   0 # Ca
     43      1   2     1.430000000   -10.153340596   -12.553516171    -0.000000000   1   0   0 # Ca
     44      1   5    -1.108333050   -17.540071376   -17.742302854     2.573008870   1   0   0 # Oh
     45      1   1    -1.248333050   -12.031511858   -16.654331453     0.430352811   1   0   0 # O
     46      1   1    -1.248333050   -10.151582951   -15.343186431     7.923956520   1   0   0 # O
     47      1   1    -1.248333050   -12.036855529   -14.037620749     0.430352811   1   0   0 # O
     48      1   7     1.700000000   -12.014762865   -13.914875258     4.508458020   1   0   0 # Cw
     49      1   7     1.700000000   -15.709762865   -13.914875258     4.508458020   1   0   0 # Cw
     50      1   5    -1.108333050   -13.848783952   -17.714406152     6.967616940   1   0   0 # Oh
     51      1   2     1.430000000   -10.153340596   -12.553516171     9.404005870   1   0   0 # Ca
     52      1   5    -1.108333050   -13.846055657   -16.180087509     4.850007870   1   0   0 # Oh
     53      1   1    -1.248333050   -11.407882951   -15.343186431     2.732398800   1   0   0 # O
     54      1   1    -1.248333050   -14.918132951   -15.343186431     7.058696900   1   0   0 # O
     55      1   1    -1.248333050   -15.613615529   -14.037620749     0.430352811   1   0   0 # O
     56      1   3     1.720000000   -12.272512950   -15.343186431     1.275119440   1   0   0 # Si
     57      1   2     1.430000000   -13.848340596   -12.553516170    -0.000000000   1   0   0 # Ca
     58      1   3     1.720000000   -13.845999413   -16.269356957     6.421137180   1   0   0 # Si
     59      1   1    -1.248333050   -12.627232950   -15.343186430     7.058696900   1   0   0 # O
     60      1   1    -1.248333050   -15.731855528   -14.037620749     9.353911892   1   0   0 # O
     61      1   1    -1.248333050   -13.846582950   -15.343186430     1.753289230   1   0   0 # O
     62      1   1    -1.248333050   -15.733901857   -16.654331453     9.353911892   1   0   0 # O
     63      1   1    -1.248333050   -15.615661858   -16.654331453     0.430352811   1   0   0 # O
     64      1   3     1.720000000   -15.376312950   -15.343186430     1.275119440   1   0   0 # Si
     65      1   3     1.720000000   -15.967512951   -15.343186431     8.493206270   1   0   0 # Si
     66      1   2     1.430000000   -13.848340596   -12.553516170     9.404005870   1   0   0 # Ca
     67      1   1    -1.248333050   -13.921418018   -13.859081853    20.738906892   1   0   0 # O
     68      1   2     1.430000000   -15.694082951   -15.343186431    11.384995000   1   0   0 # Ca
     69      1   1    -1.248333050   -13.815911689   -11.242371148    11.815347811   1   0   0 # O
     70      1   5    -1.108333050    -8.306480379   -11.538076196    16.189462890   1   0   0 # Oh
     71      1   1    -1.248333050    -8.305840596   -12.553516171    19.308951520   1   0   0 # O
     72      1   1    -1.248333050   -13.810568018   -13.859081852    11.815347811   1   0   0 # O
     73      1   7     1.700000000   -13.832660682   -13.981827343    15.893453020   1   0   0 # Cw
     74      1   7     1.700000000   -10.137660682   -13.981827344    15.893453020   1   0   0 # Cw
     75      1   2     1.430000000   -15.694082951   -15.343186431    20.789000870   1   0   0 # Ca
     76      1   5    -1.108333050   -12.001367890   -11.716615092    16.235002870   1   0   0 # Oh
     77      1   1    -1.248333050    -9.562140596   -12.553516171    14.117393800   1   0   0 # O
     78      1   1    -1.248333050   -13.926761689   -11.242371149    20.738906892   1   0   0 # O
     79      1   1    -1.248333050   -14.439540595   -12.553516171    14.117393800   1   0   0 # O
     80      1   1    -1.248333050   -10.233808018   -13.859081852    11.815347811   1   0   0 # O
     81      1   3     1.720000000   -13.574910596   -12.553516171    12.660114440   1   0   0 # Si
     82      1   2     1.430000000   -11.999082951   -15.343186431    11.384995000   1   0   0 # Ca
     83      1   3     1.720000000   -14.166110596   -12.553516171    19.855431280   1   0   0 # Si
     84      1   1    -1.248333050   -13.220190596   -12.553516170    18.443691900   1   0   0 # O
     85      1   1    -1.248333050   -10.115568017   -13.859081852    20.738906892   1   0   0 # O
     86      1   1    -1.248333050   -12.000840596   -12.553516170    13.138284230   1   0   0 # O
     87      1   1    -1.248333050   -10.113521690   -11.242371148    20.738906892   1   0   0 # O
     88      1   1    -1.248333050   -10.231761689   -11.242371148    11.815347811   1   0   0 # O
     89      1   3     1.720000000   -10.471110595   -12.553516170    12.660114440   1   0   0 # Si
     90      1   3     1.720000000    -9.879910596   -12.553516170    19.878201270   1   0   0 # Si
     91      1   2     1.430000000   -11.999082951   -15.343186431    20.789000870   1   0   0 # Ca
     92      1   1    -1.248333050    -8.234520820    -8.458280228     9.353911892   1   0   0 # O
     93      1   2     1.430000000    -6.461855887    -6.974175650    -0.000000000   1   0   0 # Ca
     94      1   1    -1.248333050    -8.340027148   -11.074990932     0.430352811   1   0   0 # O
     95      1   5    -1.108333050   -13.849458459   -10.779285885     4.804467890   1   0   0 # Oh
     96      1   1    -1.248333050    -6.460098241    -9.763845910     7.923956520   1   0   0 # O
     97      1   1    -1.248333050    -8.345370819    -8.458280229     0.430352811   1   0   0 # O
     98      1   7     1.700000000    -8.323278156    -8.335534738     4.508458020   1   0   0 # Cw
     99      1   7     1.700000000   -12.018278155    -8.335534737     4.508458020   1   0   0 # Cw
    100      1   2     1.430000000    -6.461855887    -6.974175650     9.404005870   1   0   0 # Ca
    101      1   5    -1.108333050   -10.154570948   -10.600746989     4.850007870   1   0   0 # Oh
    102      1   1    -1.248333050   -12.593798241    -9.763845910     2.732398800   1   0   0 # O
    103      1   1    -1.248333050    -8.229177148   -11.074990933     9.353911892   1   0   0 # O
    104      1   1    -1.248333050    -7.716398241    -9.763845911     2.732398800   1   0   0 # O
    105      1   5    -1.016430273   -11.226648241    -9.763845910     7.058696900   1   0   0 # Oh
    106      1   1    -1.248333050   -11.922130819    -8.458280229     0.430352811   1   0   0 # O
    107      1   3     1.720000000    -8.581028241    -9.763845910     1.275119440   1   0   0 # Si
    108      1   2     1.430000000   -10.156855887    -6.974175650    -0.000000000   1   0   0 # Ca
    109      1   3     1.720000000    -7.989828241    -9.763845910     8.470436280   1   0   0 # Si
    110      1   1    -1.248333050   -10.155098241    -9.763845910     1.753289230   1   0   0 # O
    111      1   1    -1.248333050   -11.924177149   -11.074990933     0.430352811   1   0   0 # O
    112      1   3     1.720000000   -11.684828241    -9.763845910     1.275119440   1   0   0 # Si
    113      1   2     1.430000000   -10.156855887    -6.974175650     9.404005870   1   0   0 # Ca
    114      1   1    -1.248333050   -10.229933309    -8.279741332    20.738906892   1   0   0 # O
    115      1   2     1.430000000   -12.002598241    -9.763845910    11.384995000   1   0   0 # Ca
    116      1   5    -1.108333050    -4.615867462    -4.575059227    13.958003870   1   0   0 # Oh
    117      1   1    -1.248333050   -10.124426980    -5.663030628    11.815347811   1   0   0 # O
    118      1   1    -1.248333050    -4.614355887    -6.974175650    19.308951520   1   0   0 # O
    119      1   1    -1.248333050   -10.119083309    -8.279741332    11.815347811   1   0   0 # O
    120      1   7     1.700000000   -10.141175973    -8.402486823    15.893453020   1   0   0 # Cw
    121      1   7     1.700000000    -6.446175972    -8.402486824    15.893453020   1   0   0 # Cw
    122      1   5    -1.108333050    -8.307154885    -4.602955929    18.352611940   1   0   0 # Oh
    123      1   2     1.430000000   -12.002598241    -9.763845910    20.789000870   1   0   0 # Ca
    124      1   1    -1.248333050    -5.870655887    -6.974175651    14.117393800   1   0   0 # O
    125      1   1    -1.248333050   -10.235276980    -5.663030629    20.738906892   1   0   0 # O
    126      1   1    -1.248333050   -10.748055886    -6.974175650    14.117393800   1   0   0 # O
    127      1   1    -1.248333050    -6.542323309    -8.279741332    11.815347811   1   0   0 # O
    128      1   3     1.720000000    -9.883425887    -6.974175651    12.660114440   1   0   0 # Si
    129      1   2     1.430000000    -8.307598242    -9.763845910    11.384995000   1   0   0 # Ca
    130      1   3     1.720000000   -10.474625887    -6.974175650    19.855431280   1   0   0 # Si
    131      1   1    -1.248333050    -9.528705886    -6.974175650    18.443691900   1   0   0 # O
    132      1   1    -1.248333050    -6.424083308    -8.279741332    20.738906892   1   0   0 # O
    133      1   1    -1.248333050    -8.309355886    -6.974175650    13.138284230   1   0   0 # O
    134      1   1    -1.248333050    -6.422036980    -5.663030628    20.738906892   1   0   0 # O
    135      1   1    -1.248333050    -6.540276980    -5.663030628    11.815347811   1   0   0 # O
    136      1   3     1.720000000    -6.779625886    -6.974175650    12.660114440   1   0   0 # Si
    137      1   3     1.720000000    -6.188425887    -6.974175650    19.878201270   1   0   0 # Si
    138      1   2     1.430000000    -8.307598242    -9.763845910    20.789000870   1   0   0 # Ca
    139      1   1    -1.248333050    -4.543036110    -2.878939708     9.353911892   1   0   0 # O
    140      1   2     1.430000000    -2.770371178    -1.394835130    -0.000000000   1   0   0 # Ca
    141      1   5    -1.108333050   -10.157101957    -6.583621814     2.573008870   1   0   0 # Oh
    142      1   1    -1.248333050    -4.648542439    -5.495650412     0.430352811   1   0   0 # O
    143      1   1    -1.248333050    -2.768613532    -4.184505390     7.923956520   1   0   0 # O
    144      1   1    -1.248333050    -4.653886110    -2.878939708     0.430352811   1   0   0 # O
    145      1   7     1.700000000    -4.631793447    -2.756194217     4.508458020   1   0   0 # Cw
    146      1   7     1.700000000    -8.326793446    -2.756194217     4.508458020   1   0   0 # Cw
    147      1   5    -1.108333050    -6.465814533    -6.555725112     6.967616940   1   0   0 # Oh
    148      1   2     1.430000000    -2.770371178    -1.394835130     9.404005870   1   0   0 # Ca
    149      1   1    -1.248333050    -4.537692438    -5.495650412     9.353911892   1   0   0 # O
    150      1   1    -1.248333050    -4.024913532    -4.184505391     2.732398800   1   0   0 # O
    151      1   1    -1.248333050    -8.230646110    -2.878939709     0.430352811   1   0   0 # O
    152      1   3     1.720000000    -4.889543532    -4.184505390     1.275119440   1   0   0 # Si
    153      1   2     1.430000000    -6.465371177    -1.394835130    -0.000000000   1   0   0 # Ca
    154      1   3     1.720000000    -4.298343532    -4.184505390     8.470436280   1   0   0 # Si
    155      1   1    -1.248333050    -5.244263532    -4.184505390     7.058696900   1   0   0 # O
    156      1   1    -1.248333050    -6.463613532    -4.184505390     1.753289230   1   0   0 # O
    157      1   1    -1.248333050    -8.232692439    -5.495650413     0.430352811   1   0   0 # O
    158      1   3     1.720000000    -7.993343532    -4.184505390     1.275119440   1   0   0 # Si
    159      1   2     1.430000000    -6.465371177    -1.394835130     9.404005870   1   0   0 # Ca
    160      1   1    -1.248333050    -6.538448600    -2.700400812    20.738906892   1   0   0 # O
    161      1   2     1.430000000    -8.311113532    -4.184505390    11.384995000   1   0   0 # Ca
    162      1   5    -1.108333050   -15.690321590   -21.313080788    13.958003870   2   0   0 # Oh
    163      1   1    -1.248333050    -0.922871177    -1.394835130    19.308951520   1   0   0 # O
    164      1   7     1.700000000    -6.449691263    -2.823146303    15.893453020   1   0   0 # Cw
    165      1   7     1.700000000    -2.754691263    -2.823146304    15.893453020   1   0   0 # Cw
    166      1   5    -1.108333050   -19.381609013   -21.340977490    18.352611940   2   0   0 # Oh
    167      1   2     1.430000000    -8.311113532    -4.184505390    20.789000870   1   0   0 # Ca
    168      1   1    -1.248333050   -21.309731108   -22.401052189    20.738906892   2   0   0 # O
    169      1   1    -1.248333050    -3.546321178    -1.394835130    18.443691900   1   0   0 # O
    170      1   1    -1.248333050    -2.850838600    -2.700400812    11.815347811   1   0   0 # O
    171      1   2     1.430000000    -4.616113532    -4.184505390    11.384995000   1   0   0 # Ca
    172      1   3     1.720000000    -6.783141178    -1.394835130    19.855431280   1   0   0 # Si
    173      1   1    -1.248333050    -2.732598599    -2.700400812    20.738906892   1   0   0 # O
    174      1   1    -1.248333050    -4.617871177    -1.394835130    13.138284230   1   0   0 # O
    175      1   1    -1.248333050   -17.496491108   -22.401052189    20.738906892   2   0   0 # O
    176      1   1    -1.248333050   -17.614731108   -22.401052189    11.815347811   2   0   0 # O
    177      1   3     1.720000000    -3.088141177    -1.394835130    12.660114440   1   0   0 # Si
    178      1   3     1.720000000    -2.496941177    -1.394835130    19.878201270   1   0   0 # Si
    179      1   2     1.430000000    -4.616113532    -4.184505390    20.789000870   1   0   0 # Ca
    180      1   2     1.430000000   -21.234825305   -18.132856691    -0.000000000   1   0   0 # Ca
    181      1   5    -1.108333050   -13.855617248    -1.004281294     2.573008870   0   0   0 # Oh
    182      1   1    -1.248333050   -23.112996567   -22.233671973     0.430352811   1   0   0 # O
    183      1   5    -1.016430273   -21.233067660   -20.922526951     7.923956520   1   0   0 # Oh
    184      1   1    -1.248333050   -23.118340239   -19.616961269     0.430352811   1   0   0 # O
    185      1   7     1.700000000   -23.096247574   -19.494215777     4.508458020   1   0   0 # Cw
    186      1   7     1.700000000   -26.791247575   -19.494215778     4.508458020   1   0   0 # Cw
    187      1   5    -1.108333050   -10.164329824    -0.976384591     6.967616940   0   0   0 # Oh
    188      1   2     1.430000000   -21.234825305   -18.132856691     9.404005870   1   0   0 # Ca
    189      1   5    -1.108333050   -24.927540367   -21.759428029     4.850007870   1   0   0 # Oh
    190      1   1    -1.248333050   -27.366767660   -20.922526951     2.732398800   1   0   0 # O
    191      1   1    -1.248333050   -22.489367660   -20.922526950     2.732398800   1   0   0 # O
    192      1   1    -1.248333050   -25.999617660   -20.922526951     7.058696900   1   0   0 # O
    193      1   1    -1.248333050   -26.695100239   -19.616961269     0.430352811   1   0   0 # O
    194      1   3     1.720000000   -23.353997660   -20.922526951     1.275119440   1   0   0 # Si
    195      1   2     1.430000000   -24.929825306   -18.132856691    -0.000000000   1   0   0 # Ca
    196      1   3     1.720000000   -24.927484122   -21.848697478     6.421137180   1   0   0 # Si
    197      1   1    -1.248333050   -23.708717660   -20.922526951     7.058696900   1   0   0 # O
    198      1   1    -1.248333050   -24.928067660   -20.922526951     1.753289230   1   0   0 # O
    199      1   1    -1.248333050   -26.697146566   -22.233671973     0.430352811   1   0   0 # O
    200      1   3     1.720000000   -26.457797660   -20.922526951     1.275119440   1   0   0 # Si
    201      1   2     1.430000000   -24.929825306   -18.132856691     9.404005870   1   0   0 # Ca
    202      1   2     1.430000000   -26.775567660   -20.922526951    11.384995000   1   0   0 # Ca
    203      1   1    -1.248333050   -24.897396399   -16.821711669    11.815347811   1   0   0 # O
    204      1   5    -1.108333050   -19.387965088   -17.117416716    16.189462890   1   0   0 # Oh
    205      1   1    -1.248333050   -19.387325306   -18.132856691    19.308951520   1   0   0 # O
    206      1   1    -1.248333050   -24.892052727   -19.438422373    11.815347811   1   0   0 # O
    207      1   7     1.700000000   -24.914145391   -19.561167864    15.893453020   1   0   0 # Cw
    208      1   7     1.700000000   -21.219145391   -19.561167864    15.893453020   1   0   0 # Cw
    209      1   5    -1.108333050   -23.080124304   -15.761636970    18.352611940   1   0   0 # Oh
    210      1   2     1.430000000   -26.775567660   -20.922526951    20.789000870   1   0   0 # Ca
    211      1   5    -1.016430273   -22.010775305   -18.132856691    18.443691900   1   0   0 # Oh
    212      1   3     1.720000000   -24.656395305   -18.132856690    12.660114440   1   0   0 # Si
    213      1   2     1.430000000   -23.080567660   -20.922526951    11.384995000   1   0   0 # Ca
    214      1   1    -1.248333050   -23.082325305   -18.132856691    13.138284230   1   0   0 # O
    215      1   2     1.430000000   -23.080567660   -20.922526951    20.789000870   1   0   0 # Ca
    216      1   2     1.430000000   -17.543340596   -12.553516171    -0.000000000   1   0   0 # Ca
    217      1   5    -1.108333050   -24.930943168   -16.358626405     4.804467890   1   0   0 # Oh
    218      1   1    -1.248333050   -17.541582951   -15.343186431     7.923956520   1   0   0 # O
    219      1   7     1.700000000   -19.404762865   -13.914875257     4.508458020   1   0   0 # Cw
    220      1   7     1.700000000   -23.099762865   -13.914875258     4.508458020   1   0   0 # Cw
    221      1   5    -1.108333050   -21.238783952   -17.714406152     6.967616940   1   0   0 # Oh
    222      1   2     1.430000000   -17.543340596   -12.553516171     9.404005870   1   0   0 # Ca
    223      1   5    -1.016430273   -18.797882951   -15.343186430     2.732398800   1   0   0 # Oh
    224      1   1    -1.248333050   -22.308132951   -15.343186431     7.058696900   1   0   0 # O
    225      1   2     1.430000000   -21.238340596   -12.553516170    -0.000000000   1   0   0 # Ca
    226      1   1    -1.248333050   -23.121855529   -14.037620749     9.353911892   1   0   0 # O
    227      1   5    -1.016430273   -21.236582951   -15.343186430     1.753289230   1   0   0 # Oh
    228      1   1    -1.248333050   -23.123901857   -16.654331453     9.353911892   1   0   0 # O
    229      1   3     1.720000000   -23.357512950   -15.343186430     8.493206270   1   0   0 # Si
    230      1   2     1.430000000   -21.238340596   -12.553516170     9.404005870   1   0   0 # Ca
    231      1   1    -1.248333050   -21.311418018   -13.859081852    20.738906892   1   0   0 # O
    232      1   2     1.430000000   -23.084082951   -15.343186430    11.384995000   1   0   0 # Ca
    233      1   5    -1.108333050   -15.697352171   -10.154399746    13.958003870   1   0   0 # Oh
    234      1   1    -1.248333050   -21.205911690   -11.242371148    11.815347811   1   0   0 # O
    235      1   1    -1.248333050   -15.695840596   -12.553516170    19.308951520   1   0   0 # O
    236      1   1    -1.248333050   -21.200568018   -13.859081853    11.815347811   1   0   0 # O
    237      1   7     1.700000000   -21.222660682   -13.981827344    15.893453020   1   0   0 # Cw
    238      1   7     1.700000000   -17.527660682   -13.981827344    15.893453020   1   0   0 # Cw
    239      1   5    -1.108333050   -19.388639595   -10.182296450    18.352611940   1   0   0 # Oh
    240      1   2     1.430000000   -23.084082951   -15.343186430    20.789000870   1   0   0 # Ca
    241      1   1    -1.248333050   -21.316761689   -11.242371148    20.738906892   1   0   0 # O
    242      1   1    -1.248333050   -18.319290596   -12.553516171    18.443691900   1   0   0 # O
    243      1   1    -1.248333050   -17.623808018   -13.859081853    11.815347811   1   0   0 # O
    244      1   3     1.720000000   -20.964910596   -12.553516170    12.660114440   1   0   0 # Si
    245      1   2     1.430000000   -19.389082951   -15.343186431    11.384995000   1   0   0 # Ca
    246      1   3     1.720000000   -21.556110596   -12.553516171    19.855431280   1   0   0 # Si
    247      1   1    -1.248333050   -17.505568018   -13.859081852    20.738906892   1   0   0 # O
    248      1   1    -1.248333050   -19.390840596   -12.553516170    13.138284230   1   0   0 # O
    249      1   1    -1.248333050   -17.503521689   -11.242371149    20.738906892   1   0   0 # O
    250      1   1    -1.248333050   -17.621761690   -11.242371148    11.815347811   1   0   0 # O
    251      1   3     1.720000000   -17.861110596   -12.553516170    12.660114440   1   0   0 # Si
    252      1   3     1.720000000   -17.269910596   -12.553516170    19.878201270   1   0   0 # Si
    253      1   2     1.430000000   -19.389082951   -15.343186431    20.789000870   1   0   0 # Ca
    254      1   2     1.430000000   -13.851855887    -6.974175651    -0.000000000   1   0   0 # Ca
    255      1   5    -1.108333050   -21.238586666   -12.162962334     2.573008870   1   0   0 # Oh
    256      1   1    -1.248333050   -15.730027148   -11.074990933     0.430352811   1   0   0 # O
    257      1   5    -1.108333050   -21.239458459   -10.779285885     4.804467890   1   0   0 # Oh
    258      1   5    -1.016430273   -13.850098242    -9.763845910     7.923956520   1   0   0 # Oh
    259      1   1    -1.248333050   -15.735370820    -8.458280229     0.430352811   1   0   0 # O
    260      1   7     1.700000000   -15.713278156    -8.335534737     4.508458020   1   0   0 # Cw
    261      1   7     1.700000000   -19.408278156    -8.335534737     4.508458020   1   0   0 # Cw
    262      1   5    -1.108333050   -17.547299243   -12.135065632     6.967616940   1   0   0 # Oh
    263      1   2     1.430000000   -13.851855887    -6.974175651     9.404005870   1   0   0 # Ca
    264      1   1    -1.248333050   -19.983798241    -9.763845910     2.732398800   1   0   0 # O
    265      1   3     1.720000000   -15.971028241    -9.763845910     1.275119440   1   0   0 # Si
    266      1   2     1.430000000   -17.546855887    -6.974175650    -0.000000000   1   0   0 # Ca
    267      1   5    -1.016430273   -16.325748241    -9.763845910     7.058696900   1   0   0 # Oh
    268      1   1    -1.248333050   -19.430370819    -8.458280228     9.353911892   1   0   0 # O
    269      1   1    -1.248333050   -17.545098241    -9.763845910     1.753289230   1   0   0 # O
    270      1   1    -1.248333050   -19.432417148   -11.074990933     9.353911892   1   0   0 # O
    271      1   3     1.720000000   -21.239458459   -10.779285885     3.210568590   1   0   0 # Si
    272      1   3     1.720000000   -19.666028241    -9.763845910     8.493206270   1   0   0 # Si
    273      1   2     1.430000000   -17.546855887    -6.974175650     9.404005870   1   0   0 # Ca
    274      1   2     1.430000000   -19.392598242    -9.763845910    11.384995000   1   0   0 # Ca
    275      1   1    -1.248333050   -17.514426980    -5.663030628    11.815347811   1   0   0 # O
    276      1   5    -1.108333050   -12.004995669    -5.958735676    16.189462890   1   0   0 # Oh
    277      1   1    -1.248333050   -12.004355887    -6.974175650    19.308951520   1   0   0 # O
    278      1   1    -1.248333050   -17.509083309    -8.279741332    11.815347811   1   0   0 # O
    279      1   7     1.700000000   -17.531175972    -8.402486824    15.893453020   1   0   0 # Cw
    280      1   7     1.700000000   -13.836175973    -8.402486824    15.893453020   1   0   0 # Cw
    281      1   2     1.430000000   -19.392598242    -9.763845910    20.789000870   1   0   0 # Ca
    282      1   5    -1.108333050   -15.699883180    -6.137274573    16.235002870   1   0   0 # Oh
    283      1   1    -1.248333050   -18.138055887    -6.974175650    14.117393800   1   0   0 # O
    284      1   1    -1.248333050   -13.932323309    -8.279741332    11.815347811   1   0   0 # O
    285      1   3     1.720000000   -17.273425887    -6.974175650    12.660114440   1   0   0 # Si
    286      1   2     1.430000000   -15.697598241    -9.763845911    11.384995000   1   0   0 # Ca
    287      1   5    -1.016430273   -16.918705887    -6.974175650    18.443691900   1   0   0 # Oh
    288      1   1    -1.248333050   -15.699355887    -6.974175650    13.138284230   1   0   0 # O
    289      1   1    -1.248333050   -13.930276980    -5.663030628    11.815347811   1   0   0 # O
    290      1   3     1.720000000   -14.169625886    -6.974175650    12.660114440   1   0   0 # Si