LAMMPS data file generated by STL2LMP v6.2 / 15 Feb 2020 on Wed Jun  3 19:30:25 2020

   8279 atoms
   3153 bonds
   1068 angles

   9 atom types
   4 bond types
   1 angle types

 -4.112318398e+01  1.060681602e+01 xlo xhi
 -2.306134546e+01 -7.439454570e-01 ylo yhi
 -3.415500000e+01  3.415500000e+01 zlo zhi
  1.476600000e+01  0.000000000e+00  0.000000000e+00 xy xz yz

Masses

   1  15.999000 # O
   2  40.078000 # Ca
   3  28.085000 # Si
   4   1.007940 # H
   5  15.999000 # Oh
   6  15.999000 # Ow
   7  40.078000 # Cw
   8   1.007940 # Hw
   9  15.999000 # Ob

Pair Coeffs

   1 0.0000000000e+00 0.0000000000e+00 # O
   2 0.0000000000e+00 0.0000000000e+00 # Ca
   3 0.0000000000e+00 0.0000000000e+00 # Si
   4 0.0000000000e+00 0.0000000000e+00 # H
   5 0.0000000000e+00 0.0000000000e+00 # Oh
   6 0.0000000000e+00 0.0000000000e+00 # Ow
   7 0.0000000000e+00 0.0000000000e+00 # Cw
   8 0.0000000000e+00 0.0000000000e+00 # Hw
   9 0.0000000000e+00 0.0000000000e+00 # Ob

Bond Coeffs

   1 0.0000e+00 0.0000e+00 # Ow-Hw
   2 0.0000e+00 0.0000e+00 # Oh-H
   3 0.0000e+00 0.0000e+00 # O-Si
   4 0.0000e+00 0.0000e+00 # Oh-Si

Angle Coeffs

   1 0.0000e+00 0.0000e+00 # Hw-Ow-Hw

Atoms # full

      1      1   1 -1.144725622e+00 -1.561749024e+01 -1.961696127e+01  9.353911892e+00   1   0   0 # O
      2      1   2  1.430000000e+00 -1.384482531e+01 -1.813285669e+01 -0.000000000e+00   1   0   0 # Ca
      3      1   1 -1.144725622e+00 -1.572299657e+01 -2.223367197e+01  4.303528110e-01   1   0   0 # O
      4      1   5 -1.004725622e+00 -2.123242788e+01 -2.193796693e+01  4.804467890e+00   1   0   0 # Oh
      5      1   5 -1.004725622e+00 -1.384306766e+01 -2.092252695e+01  7.923956520e+00   1   0   0 # Oh
      6      1   7  1.700000000e+00 -1.570624758e+01 -1.949421578e+01  4.508458020e+00   1   0   0 # Cw
      7      1   7  1.700000000e+00 -1.940124757e+01 -1.949421578e+01  4.508458020e+00   1   0   0 # Cw
      8      1   2  1.430000000e+00 -1.384482531e+01 -1.813285669e+01  9.404005870e+00   1   0   0 # Ca
      9      1   5 -1.004725622e+00 -1.753754037e+01 -2.175942803e+01  4.850007870e+00   1   0   0 # Oh
     10      1   5 -1.004725622e+00 -1.997676766e+01 -2.092252695e+01  2.732398800e+00   1   0   0 # Oh
     11      1   5 -1.004725622e+00 -1.509936766e+01 -2.092252695e+01  2.732398800e+00   1   0   0 # Oh
     12      1   5 -1.004725622e+00 -1.860961766e+01 -2.092252695e+01  7.058696900e+00   1   0   0 # Oh
     13      1   1 -1.144725622e+00 -1.930510024e+01 -1.961696127e+01  4.303528110e-01   1   0   0 # O
     14      1   2  1.430000000e+00 -1.753982531e+01 -1.813285669e+01 -0.000000000e+00   1   0   0 # Ca
     15      1   5 -1.004725622e+00 -1.631871766e+01 -2.092252695e+01  7.058696900e+00   1   0   0 # Oh
     16      1   5 -1.004725622e+00 -1.753806766e+01 -2.092252695e+01  1.753289230e+00   1   0   0 # Oh
     17      1   5 -1.004725622e+00 -1.942538657e+01 -2.223367197e+01  9.353911892e+00   1   0   0 # Oh
     18      1   2  1.430000000e+00 -1.753982531e+01 -1.813285669e+01  9.404005870e+00   1   0   0 # Ca
     19      1   1 -1.144725622e+00 -1.761290273e+01 -1.943842237e+01  2.073890689e+01   1   0   0 # O
     20      1   2  1.430000000e+00 -1.938556766e+01 -2.092252695e+01  1.138499500e+01   1   0   0 # Ca
     21      1   1 -1.144725622e+00 -1.750739640e+01 -1.682171167e+01  1.181534781e+01   1   0   0 # O
     22      1   5 -1.004725622e+00 -1.199796509e+01 -1.711741672e+01  1.618946289e+01   1   0   0 # Oh
     23      1   5 -1.004725622e+00 -1.199732531e+01 -1.813285669e+01  1.930895152e+01   1   0   0 # Oh
     24      1   1 -1.144725622e+00 -1.750205273e+01 -1.943842237e+01  1.181534781e+01   1   0   0 # O
     25      1   7  1.700000000e+00 -1.752414539e+01 -1.956116786e+01  1.589345302e+01   1   0   0 # Cw
     26      1   7  1.700000000e+00 -1.382914539e+01 -1.956116786e+01  1.589345302e+01   1   0   0 # Cw
     27      1   2  1.430000000e+00 -1.938556766e+01 -2.092252695e+01  2.078900087e+01   1   0   0 # Ca
     28      1   5 -1.004725622e+00 -1.569285260e+01 -1.729595561e+01  1.623500287e+01   1   0   0 # Oh
     29      1   5 -1.004725622e+00 -1.325362531e+01 -1.813285669e+01  1.411739380e+01   1   0   0 # Oh
     30      1   1 -1.144725622e+00 -1.761824640e+01 -1.682171167e+01  2.073890689e+01   1   0   0 # O
     31      1   5 -1.004725622e+00 -1.813102531e+01 -1.813285669e+01  1.411739380e+01   1   0   0 # Oh
     32      1   5 -1.004725622e+00 -1.462077531e+01 -1.813285669e+01  1.844369190e+01   1   0   0 # Oh
     33      1   5 -1.004725622e+00 -1.392529273e+01 -1.943842237e+01  1.181534781e+01   1   0   0 # Oh
     34      1   3  1.720000000e+00 -1.726639530e+01 -1.813285669e+01  1.266011444e+01   1   0   0 # Si
     35      1   2  1.430000000e+00 -1.569056766e+01 -2.092252695e+01  1.138499500e+01   1   0   0 # Ca
     36      1   3  1.720000000e+00 -1.785759531e+01 -1.813285669e+01  1.985543128e+01   1   0   0 # Si
     37      1   5 -1.004725622e+00 -1.691167530e+01 -1.813285669e+01  1.844369190e+01   1   0   0 # Oh
     38      1   5 -1.004725622e+00 -1.569232531e+01 -1.813285669e+01  1.313828423e+01   1   0   0 # Oh
     39      1   5 -1.004725622e+00 -1.380500640e+01 -1.682171167e+01  2.073890689e+01   1   0   0 # Oh
     40      1   2  1.430000000e+00 -1.569056766e+01 -2.092252695e+01  2.078900087e+01   1   0   0 # Ca
     41      1   2  1.430000000e+00 -1.015334060e+01 -1.255351617e+01 -0.000000000e+00   1   0   0 # Ca
     42      1   5 -1.004725622e+00 -1.754094317e+01 -1.635862640e+01  4.804467890e+00   1   0   0 # Oh
     43      1   5 -1.004725622e+00 -1.015158295e+01 -1.534318643e+01  7.923956520e+00   1   0   0 # Oh
     44      1   1 -1.144725622e+00 -1.203685553e+01 -1.403762075e+01  4.303528110e-01   1   0   0 # O
     45      1   7  1.700000000e+00 -1.201476286e+01 -1.391487526e+01  4.508458020e+00   1   0   0 # Cw
     46      1   7  1.700000000e+00 -1.570976287e+01 -1.391487526e+01  4.508458020e+00   1   0   0 # Cw
     47      1   5 -1.004725622e+00 -1.384878395e+01 -1.771440615e+01  6.967616940e+00   1   0   0 # Oh
     48      1   2  1.430000000e+00 -1.015334060e+01 -1.255351617e+01  9.404005870e+00   1   0   0 # Ca
     49      1   5 -1.004725622e+00 -1.384605566e+01 -1.618008751e+01  4.850007870e+00   1   0   0 # Oh
     50      1   5 -1.004725622e+00 -1.628528295e+01 -1.534318643e+01  2.732398800e+00   1   0   0 # Oh
     51      1   5 -1.004725622e+00 -1.192066186e+01 -1.665433145e+01  9.353911892e+00   1   0   0 # Oh
     52      1   5 -1.004725622e+00 -1.140788295e+01 -1.534318643e+01  2.732398800e+00   1   0   0 # Oh
     53      1   9 -1.144725622e+00 -1.491813295e+01 -1.534318643e+01  7.058696900e+00   1   0   0 # Ob
     54      1   1 -1.144725622e+00 -1.561361553e+01 -1.403762075e+01  4.303528110e-01   1   0   0 # O
     55      1   2  1.430000000e+00 -1.384834060e+01 -1.255351617e+01 -0.000000000e+00   1   0   0 # Ca
     56      1   3  1.720000000e+00 -1.384599941e+01 -1.626935696e+01  6.421137180e+00   1   0   0 # Si
     57      1   5 -1.004725622e+00 -1.262723295e+01 -1.534318643e+01  7.058696900e+00   1   0   0 # Oh
     58      1   1 -1.144725622e+00 -1.573185553e+01 -1.403762075e+01  9.353911892e+00   1   0   0 # O
     59      1   5 -1.004725622e+00 -1.384658295e+01 -1.534318643e+01  1.753289230e+00   1   0   0 # Oh
     60      1   1 -1.144725622e+00 -1.573390186e+01 -1.665433145e+01  9.353911892e+00   1   0   0 # O
     61      1   1 -1.144725622e+00 -1.561566186e+01 -1.665433145e+01  4.303528110e-01   1   0   0 # O
     62      1   3  1.720000000e+00 -1.537631295e+01 -1.534318643e+01  1.275119440e+00   1   0   0 # Si
     63      1   3  1.720000000e+00 -1.596751295e+01 -1.534318643e+01  8.493206270e+00   1   0   0 # Si
     64      1   2  1.430000000e+00 -1.384834060e+01 -1.255351617e+01  9.404005870e+00   1   0   0 # Ca
     65      1   1 -1.144725622e+00 -1.392141802e+01 -1.385908185e+01  2.073890689e+01   1   0   0 # O
     66      1   2  1.430000000e+00 -1.569408295e+01 -1.534318643e+01  1.138499500e+01   1   0   0 # Ca
     67      1   5 -1.004725622e+00 -8.307352171e+00 -1.015439975e+01  1.395800387e+01   1   0   0 # Oh
     68      1   1 -1.144725622e+00 -1.381591169e+01 -1.124237115e+01  1.181534781e+01   1   0   0 # O
     69      1   5 -1.004725622e+00 -8.305840596e+00 -1.255351617e+01  1.930895152e+01   1   0   0 # Oh
     70      1   1 -1.144725622e+00 -1.381056802e+01 -1.385908185e+01  1.181534781e+01   1   0   0 # O
     71      1   7  1.700000000e+00 -1.383266068e+01 -1.398182734e+01  1.589345302e+01   1   0   0 # Cw
     72      1   7  1.700000000e+00 -1.013766068e+01 -1.398182734e+01  1.589345302e+01   1   0   0 # Cw
     73      1   5 -1.004725622e+00 -1.199863959e+01 -1.018229645e+01  1.835261194e+01   1   0   0 # Oh
     74      1   2  1.430000000e+00 -1.569408295e+01 -1.534318643e+01  2.078900087e+01   1   0   0 # Ca
     75      1   5 -1.004725622e+00 -9.562140596e+00 -1.255351617e+01  1.411739380e+01   1   0   0 # Oh
     76      1   1 -1.144725622e+00 -1.392676169e+01 -1.124237115e+01  2.073890689e+01   1   0   0 # O
     77      1   9 -1.144725622e+00 -1.443954060e+01 -1.255351617e+01  1.411739380e+01   1   0   0 # Ob
     78      1   5 -1.004725622e+00 -1.092929060e+01 -1.255351617e+01  1.844369190e+01   1   0   0 # Oh
     79      1   1 -1.144725622e+00 -1.023380802e+01 -1.385908185e+01  1.181534781e+01   1   0   0 # O
     80      1   3  1.720000000e+00 -1.357491060e+01 -1.255351617e+01  1.266011444e+01   1   0   0 # Si
     81      1   2  1.430000000e+00 -1.199908295e+01 -1.534318643e+01  1.138499500e+01   1   0   0 # Ca
     82      1   3  1.720000000e+00 -1.416611060e+01 -1.255351617e+01  1.985543128e+01   1   0   0 # Si
     83      1   5 -1.004725622e+00 -1.322019060e+01 -1.255351617e+01  1.844369190e+01   1   0   0 # Oh
     84      1   9 -1.144725622e+00 -1.200084060e+01 -1.255351617e+01  1.313828423e+01   1   0   0 # Ob
     85      1   5 -1.004725622e+00 -1.011352169e+01 -1.124237115e+01  2.073890689e+01   1   0   0 # Oh
     86      1   1 -1.144725622e+00 -1.023176169e+01 -1.124237115e+01  1.181534781e+01   1   0   0 # O
     87      1   3  1.720000000e+00 -1.047111060e+01 -1.255351617e+01  1.266011444e+01   1   0   0 # Si
     88      1   2  1.430000000e+00 -1.199908295e+01 -1.534318643e+01  2.078900087e+01   1   0   0 # Ca
     89      1   1 -1.144725622e+00 -8.234520820e+00 -8.458280228e+00  9.353911892e+00   1   0   0 # O
     90      1   2  1.430000000e+00 -6.461855887e+00 -6.974175650e+00 -0.000000000e+00   1   0   0 # Ca
     91      1   5 -1.004725622e+00 -1.384858667e+01 -1.216296233e+01  2.573008870e+00   1   0   0 # Oh
     92      1   1 -1.144725622e+00 -8.340027148e+00 -1.107499093e+01  4.303528110e-01   1   0   0 # O
     93      1   5 -1.004725622e+00 -6.460098241e+00 -9.763845910e+00  7.923956520e+00   1   0   0 # Oh
     94      1   7  1.700000000e+00 -8.323278156e+00 -8.335534738e+00  4.508458020e+00   1   0   0 # Cw
     95      1   7  1.700000000e+00 -1.201827816e+01 -8.335534737e+00  4.508458020e+00   1   0   0 # Cw
     96      1   2  1.430000000e+00 -6.461855887e+00 -6.974175650e+00  9.404005870e+00   1   0   0 # Ca
     97      1   5 -1.004725622e+00 -1.015457095e+01 -1.060074699e+01  4.850007870e+00   1   0   0 # Oh
     98      1   5 -1.004725622e+00 -1.259379824e+01 -9.763845910e+00  2.732398800e+00   1   0   0 # Oh
     99      1   5 -1.004725622e+00 -7.716398241e+00 -9.763845911e+00  2.732398800e+00   1   0   0 # Oh
    100      1   5 -1.004725622e+00 -1.122664824e+01 -9.763845910e+00  7.058696900e+00   1   0   0 # Oh
    101      1   2  1.430000000e+00 -1.015685589e+01 -6.974175650e+00 -0.000000000e+00   1   0   0 # Ca
    102      1   5 -1.004725622e+00 -8.935748241e+00 -9.763845910e+00  7.058696900e+00   1   0   0 # Oh
    103      1   1 -1.144725622e+00 -1.204037082e+01 -8.458280229e+00  9.353911892e+00   1   0   0 # O
    104      1   5 -1.004725622e+00 -1.015509824e+01 -9.763845910e+00  1.753289230e+00   1   0   0 # Oh
    105      1   1 -1.144725622e+00 -1.192417715e+01 -1.107499093e+01  4.303528110e-01   1   0   0 # O
    106      1   2  1.430000000e+00 -1.015685589e+01 -6.974175650e+00  9.404005870e+00   1   0   0 # Ca
    107      1   1 -1.144725622e+00 -1.022993331e+01 -8.279741332e+00  2.073890689e+01   1   0   0 # O
    108      1   2  1.430000000e+00 -1.200259824e+01 -9.763845910e+00  1.138499500e+01   1   0   0 # Ca
    109      1   5 -1.004725622e+00 -4.615867462e+00 -4.575059227e+00  1.395800387e+01   1   0   0 # Oh
    110      1   1 -1.144725622e+00 -1.012442698e+01 -5.663030628e+00  1.181534781e+01   1   0   0 # O
    111      1   5 -1.004725622e+00 -4.614355887e+00 -6.974175650e+00  1.930895152e+01   1   0   0 # Oh
    112      1   1 -1.144725622e+00 -1.011908331e+01 -8.279741332e+00  1.181534781e+01   1   0   0 # O
    113      1   7  1.700000000e+00 -1.014117597e+01 -8.402486823e+00  1.589345302e+01   1   0   0 # Cw
    114      1   7  1.700000000e+00 -6.446175972e+00 -8.402486824e+00  1.589345302e+01   1   0   0 # Cw
    115      1   2  1.430000000e+00 -1.200259824e+01 -9.763845910e+00  2.078900087e+01   1   0   0 # Ca
    116      1   5 -1.004725622e+00 -8.309883181e+00 -6.137274572e+00  1.623500287e+01   1   0   0 # Oh
    117      1   5 -1.004725622e+00 -5.870655887e+00 -6.974175651e+00  1.411739380e+01   1   0   0 # Oh
    118      1   1 -1.144725622e+00 -1.023527698e+01 -5.663030629e+00  2.073890689e+01   1   0   0 # O
    119      1   9 -1.144725622e+00 -1.074805589e+01 -6.974175650e+00  1.411739380e+01   1   0   0 # Ob
    120      1   5 -1.004725622e+00 -7.237805887e+00 -6.974175650e+00  1.844369190e+01   1   0   0 # Oh
    121      1   1 -1.144725622e+00 -6.542323309e+00 -8.279741332e+00  1.181534781e+01   1   0   0 # O
    122      1   3  1.720000000e+00 -9.883425887e+00 -6.974175651e+00  1.266011444e+01   1   0   0 # Si
    123      1   2  1.430000000e+00 -8.307598242e+00 -9.763845910e+00  1.138499500e+01   1   0   0 # Ca
    124      1   3  1.720000000e+00 -1.047462589e+01 -6.974175650e+00  1.985543128e+01   1   0   0 # Si
    125      1   5 -1.004725622e+00 -9.528705886e+00 -6.974175650e+00  1.844369190e+01   1   0   0 # Oh
    126      1   5 -1.004725622e+00 -6.424083308e+00 -8.279741332e+00  2.073890689e+01   1   0   0 # Oh
    127      1   9 -1.144725622e+00 -8.309355886e+00 -6.974175650e+00  1.313828423e+01   1   0   0 # Ob
    128      1   1 -1.144725622e+00 -6.540276980e+00 -5.663030628e+00  1.181534781e+01   1   0   0 # O
    129      1   3  1.720000000e+00 -6.779625886e+00 -6.974175650e+00  1.266011444e+01   1   0   0 # Si
    130      1   2  1.430000000e+00 -8.307598242e+00 -9.763845910e+00  2.078900087e+01   1   0   0 # Ca
    131      1   1 -1.144725622e+00 -4.543036110e+00 -2.878939708e+00  9.353911892e+00   1   0   0 # O
    132      1   2  1.430000000e+00 -2.770371178e+00 -1.394835130e+00 -0.000000000e+00   1   0   0 # Ca
    133      1   1 -1.144725622e+00 -4.648542439e+00 -5.495650412e+00  4.303528110e-01   1   0   0 # O
    134      1   5 -1.004725622e+00 -1.015797375e+01 -5.199945365e+00  4.804467890e+00   1   0   0 # Oh
    135      1   9 -1.144725622e+00 -2.768613532e+00 -4.184505390e+00  7.923956520e+00   1   0   0 # Ob
    136      1   1 -1.144725622e+00 -4.653886110e+00 -2.878939708e+00  4.303528110e-01   1   0   0 # O
    137      1   7  1.700000000e+00 -4.631793447e+00 -2.756194217e+00  4.508458020e+00   1   0   0 # Cw
    138      1   7  1.700000000e+00 -8.326793446e+00 -2.756194217e+00  4.508458020e+00   1   0   0 # Cw
    139      1   5 -1.004725622e+00 -6.465814533e+00 -6.555725112e+00  6.967616940e+00   1   0   0 # Oh
    140      1   2  1.430000000e+00 -2.770371178e+00 -1.394835130e+00  9.404005870e+00   1   0   0 # Ca
    141      1   5 -1.004725622e+00 -8.902313531e+00 -4.184505390e+00  2.732398800e+00   1   0   0 # Oh
    142      1   1 -1.144725622e+00 -4.537692438e+00 -5.495650412e+00  9.353911892e+00   1   0   0 # O
    143      1   9 -1.144725622e+00 -4.024913532e+00 -4.184505391e+00  2.732398800e+00   1   0   0 # Ob
    144      1   5 -1.004725622e+00 -7.535163532e+00 -4.184505390e+00  7.058696900e+00   1   0   0 # Oh
    145      1   3  1.720000000e+00 -4.889543532e+00 -4.184505390e+00  1.275119440e+00   1   0   0 # Si
    146      1   2  1.430000000e+00 -6.465371177e+00 -1.394835130e+00 -0.000000000e+00   1   0   0 # Ca
    147      1   3  1.720000000e+00 -4.298343532e+00 -4.184505390e+00  8.470436280e+00   1   0   0 # Si
    148      1   5 -1.004725622e+00 -5.244263532e+00 -4.184505390e+00  7.058696900e+00   1   0   0 # Oh
    149      1   1 -1.144725622e+00 -8.348886110e+00 -2.878939708e+00  9.353911892e+00   1   0   0 # O
    150      1   5 -1.004725622e+00 -6.463613532e+00 -4.184505390e+00  1.753289230e+00   1   0   0 # Oh
    151      1   1 -1.144725622e+00 -8.232692439e+00 -5.495650413e+00  4.303528110e-01   1   0   0 # O
    152      1   2  1.430000000e+00 -6.465371177e+00 -1.394835130e+00  9.404005870e+00   1   0   0 # Ca
    153      1   1 -1.144725622e+00 -6.538448600e+00 -2.700400812e+00  2.073890689e+01   1   0   0 # O
    154      1   2  1.430000000e+00 -8.311113532e+00 -4.184505390e+00  1.138499500e+01   1   0   0 # Ca
    155      1   5 -1.004725622e+00 -1.568944980e+01 -2.269675724e+01  1.618946289e+01   2   0   0 # Oh
    156      1   5 -1.004725622e+00 -9.228711770e-01 -1.394835130e+00  1.930895152e+01   1   0   0 # Oh
    157      1   1 -1.144725622e+00 -6.427598600e+00 -2.700400812e+00  1.181534781e+01   1   0   0 # O
    158      1   7  1.700000000e+00 -6.449691263e+00 -2.823146303e+00  1.589345302e+01   1   0   0 # Cw
    159      1   7  1.700000000e+00 -2.754691263e+00 -2.823146304e+00  1.589345302e+01   1   0   0 # Cw
    160      1   5 -1.004725622e+00 -1.938160901e+01 -2.134097749e+01  1.835261194e+01   2   0   0 # Oh
    161      1   2  1.430000000e+00 -8.311113532e+00 -4.184505390e+00  2.078900087e+01   1   0   0 # Ca
    162      1   5 -1.004725622e+00 -2.179171177e+00 -1.394835131e+00  1.411739380e+01   1   0   0 # Oh
    163      1   1 -1.144725622e+00 -2.130973111e+01 -2.240105219e+01  2.073890689e+01   2   0   0 # O
    164      1   5 -1.004725622e+00 -7.056571177e+00 -1.394835130e+00  1.411739380e+01   1   0   0 # Oh
    165      1   5 -1.004725622e+00 -3.546321178e+00 -1.394835130e+00  1.844369190e+01   1   0   0 # Oh
    166      1   1 -1.144725622e+00 -2.850838600e+00 -2.700400812e+00  1.181534781e+01   1   0   0 # O
    167      1   2  1.430000000e+00 -4.616113532e+00 -4.184505390e+00  1.138499500e+01   1   0   0 # Ca
    168      1   3  1.720000000e+00 -6.783141178e+00 -1.394835130e+00  1.985543128e+01   1   0   0 # Si
    169      1   5 -1.004725622e+00 -5.837221177e+00 -1.394835130e+00  1.844369190e+01   1   0   0 # Oh
    170      1   5 -1.004725622e+00 -4.617871177e+00 -1.394835130e+00  1.313828423e+01   1   0   0 # Oh
    171      1   1 -1.144725622e+00 -1.749649111e+01 -2.240105219e+01  2.073890689e+01   2   0   0 # O
    172      1   2  1.430000000e+00 -4.616113532e+00 -4.184505390e+00  2.078900087e+01   1   0   0 # Ca
    173      1   1 -1.144725622e+00 -2.300749024e+01 -1.961696127e+01  9.353911892e+00   1   0   0 # O
    174      1   2  1.430000000e+00 -2.123482531e+01 -1.813285669e+01 -0.000000000e+00   1   0   0 # Ca
    175      1   1 -1.144725622e+00 -2.311299657e+01 -2.223367197e+01  4.303528110e-01   1   0   0 # O
    176      1   5 -1.004725622e+00 -2.862242788e+01 -2.193796693e+01  4.804467890e+00   1   0   0 # Oh
    177      1   5 -1.004725622e+00 -2.123306766e+01 -2.092252695e+01  7.923956520e+00   1   0   0 # Oh
    178      1   1 -1.144725622e+00 -2.311834024e+01 -1.961696127e+01  4.303528110e-01   1   0   0 # O
    179      1   7  1.700000000e+00 -2.309624757e+01 -1.949421578e+01  4.508458020e+00   1   0   0 # Cw
    180      1   7  1.700000000e+00 -2.679124757e+01 -1.949421578e+01  4.508458020e+00   1   0   0 # Cw
    181      1   2  1.430000000e+00 -2.123482531e+01 -1.813285669e+01  9.404005870e+00   1   0   0 # Ca
    182      1   5 -1.004725622e+00 -2.492754037e+01 -2.175942803e+01  4.850007870e+00   1   0   0 # Oh
    183      1   5 -1.004725622e+00 -2.736676766e+01 -2.092252695e+01  2.732398800e+00   1   0   0 # Oh
    184      1   1 -1.144725622e+00 -2.300214657e+01 -2.223367197e+01  9.353911892e+00   1   0   0 # O
    185      1   5 -1.004725622e+00 -2.248936766e+01 -2.092252695e+01  2.732398800e+00   1   0   0 # Oh
    186      1   5 -1.004725622e+00 -2.599961766e+01 -2.092252695e+01  7.058696900e+00   1   0   0 # Oh
    187      1   3  1.720000000e+00 -2.335399766e+01 -2.092252695e+01  1.275119440e+00   1   0   0 # Si
    188      1   2  1.430000000e+00 -2.492982531e+01 -1.813285669e+01 -0.000000000e+00   1   0   0 # Ca
    189      1   3  1.720000000e+00 -2.276279766e+01 -2.092252695e+01  8.470436280e+00   1   0   0 # Si
    190      1   5 -1.004725622e+00 -2.370871766e+01 -2.092252695e+01  7.058696900e+00   1   0   0 # Oh
    191      1   5 -1.004725622e+00 -2.492806766e+01 -2.092252695e+01  1.753289230e+00   1   0   0 # Oh
    192      1   5 -1.004725622e+00 -2.681538657e+01 -2.223367197e+01  9.353911892e+00   1   0   0 # Oh
    193      1   5 -1.004725622e+00 -2.669714657e+01 -2.223367197e+01  4.303528110e-01   1   0   0 # Oh
    194      1   2  1.430000000e+00 -2.492982531e+01 -1.813285669e+01  9.404005870e+00   1   0   0 # Ca
    195      1   5 -1.004725622e+00 -2.500290273e+01 -1.943842237e+01  2.073890689e+01   1   0   0 # Oh
    196      1   2  1.430000000e+00 -2.677556766e+01 -2.092252695e+01  1.138499500e+01   1   0   0 # Ca
    197      1   1 -1.144725622e+00 -2.489739640e+01 -1.682171167e+01  1.181534781e+01   1   0   0 # O
    198      1   5 -1.004725622e+00 -1.938796509e+01 -1.711741672e+01  1.618946289e+01   1   0   0 # Oh
    199      1   9 -1.144725622e+00 -1.938732531e+01 -1.813285669e+01  1.930895152e+01   1   0   0 # Ob
    200      1   7  1.700000000e+00 -2.491414539e+01 -1.956116786e+01  1.589345302e+01   1   0   0 # Cw
    201      1   7  1.700000000e+00 -2.121914539e+01 -1.956116786e+01  1.589345302e+01   1   0   0 # Cw
    202      1   5 -1.004725622e+00 -2.308012430e+01 -1.576163697e+01  1.835261194e+01   1   0   0 # Oh
    203      1   2  1.430000000e+00 -2.677556766e+01 -2.092252695e+01  2.078900087e+01   1   0   0 # Ca
    204      1   5 -1.004725622e+00 -2.308285260e+01 -1.729595561e+01  1.623500287e+01   1   0   0 # Oh
    205      1   5 -1.004725622e+00 -2.064362531e+01 -1.813285669e+01  1.411739380e+01   1   0   0 # Oh
    206      1   5 -1.004725622e+00 -2.552102530e+01 -1.813285669e+01  1.411739380e+01   1   0   0 # Oh
    207      1   9 -1.144725622e+00 -2.201077530e+01 -1.813285669e+01  1.844369190e+01   1   0   0 # Ob
    208      1   1 -1.144725622e+00 -2.131529273e+01 -1.943842237e+01  1.181534781e+01   1   0   0 # O
    209      1   2  1.430000000e+00 -2.308056766e+01 -2.092252695e+01  1.138499500e+01   1   0   0 # Ca
    210      1   3  1.720000000e+00 -2.308290884e+01 -1.720668617e+01  1.780613218e+01   1   0   0 # Si
    211      1   5 -1.004725622e+00 -2.430167530e+01 -1.813285669e+01  1.844369190e+01   1   0   0 # Oh
    212      1   1 -1.144725622e+00 -2.119705273e+01 -1.943842237e+01  2.073890689e+01   1   0   0 # O
    213      1   5 -1.004725622e+00 -2.308232531e+01 -1.813285669e+01  1.313828423e+01   1   0   0 # Oh
    214      1   1 -1.144725622e+00 -2.119500640e+01 -1.682171167e+01  2.073890689e+01   1   0   0 # O
    215      1   1 -1.144725622e+00 -2.131324640e+01 -1.682171167e+01  1.181534781e+01   1   0   0 # O
    216      1   3  1.720000000e+00 -2.155259531e+01 -1.813285669e+01  1.266011444e+01   1   0   0 # Si
    217      1   3  1.720000000e+00 -2.096139531e+01 -1.813285669e+01  1.987820127e+01   1   0   0 # Si
    218      1   2  1.430000000e+00 -2.308056766e+01 -2.092252695e+01  2.078900087e+01   1   0   0 # Ca
    219      1   1 -1.144725622e+00 -1.931600553e+01 -1.403762075e+01  9.353911892e+00   1   0   0 # O
    220      1   2  1.430000000e+00 -1.754334060e+01 -1.255351617e+01 -0.000000000e+00   1   0   0 # Ca
    221      1   1 -1.144725622e+00 -1.942151186e+01 -1.665433145e+01  4.303528110e-01   1   0   0 # O
    222      1   5 -1.004725622e+00 -2.493094317e+01 -1.635862640e+01  4.804467890e+00   1   0   0 # Oh
    223      1   9 -1.144725622e+00 -1.754158295e+01 -1.534318643e+01  7.923956520e+00   1   0   0 # Ob
    224      1   1 -1.144725622e+00 -1.942685553e+01 -1.403762075e+01  4.303528110e-01   1   0   0 # O
    225      1   7  1.700000000e+00 -1.940476286e+01 -1.391487526e+01  4.508458020e+00   1   0   0 # Cw
    226      1   7  1.700000000e+00 -2.309976286e+01 -1.391487526e+01  4.508458020e+00   1   0   0 # Cw
    227      1   5 -1.004725622e+00 -2.123878395e+01 -1.771440615e+01  6.967616940e+00   1   0   0 # Oh
    228      1   2  1.430000000e+00 -1.754334060e+01 -1.255351617e+01  9.404005870e+00   1   0   0 # Ca
    229      1   5 -1.004725622e+00 -2.367528295e+01 -1.534318643e+01  2.732398800e+00   1   0   0 # Oh
    230      1   1 -1.144725622e+00 -1.931066186e+01 -1.665433145e+01  9.353911892e+00   1   0   0 # O
    231      1   5 -1.004725622e+00 -1.879788295e+01 -1.534318643e+01  2.732398800e+00   1   0   0 # Oh
    232      1   5 -1.004725622e+00 -2.230813295e+01 -1.534318643e+01  7.058696900e+00   1   0   0 # Oh
    233      1   1 -1.144725622e+00 -2.300361553e+01 -1.403762075e+01  4.303528110e-01   1   0   0 # O
    234      1   3  1.720000000e+00 -1.966251295e+01 -1.534318643e+01  1.275119440e+00   1   0   0 # Si
    235      1   2  1.430000000e+00 -2.123834060e+01 -1.255351617e+01 -0.000000000e+00   1   0   0 # Ca
    236      1   3  1.720000000e+00 -1.907131295e+01 -1.534318643e+01  8.470436280e+00   1   0   0 # Si
    237      1   5 -1.004725622e+00 -2.001723295e+01 -1.534318643e+01  7.058696900e+00   1   0   0 # Oh
    238      1   1 -1.144725622e+00 -2.312185553e+01 -1.403762075e+01  9.353911892e+00   1   0   0 # O
    239      1   9 -1.144725622e+00 -2.123658295e+01 -1.534318643e+01  1.753289230e+00   1   0   0 # Ob
    240      1   1 -1.144725622e+00 -2.312390186e+01 -1.665433145e+01  9.353911892e+00   1   0   0 # O
    241      1   1 -1.144725622e+00 -2.300566186e+01 -1.665433145e+01  4.303528110e-01   1   0   0 # O
    242      1   3  1.720000000e+00 -2.276631295e+01 -1.534318643e+01  1.275119440e+00   1   0   0 # Si
    243      1   3  1.720000000e+00 -2.335751295e+01 -1.534318643e+01  8.493206270e+00   1   0   0 # Si
    244      1   2  1.430000000e+00 -2.123834060e+01 -1.255351617e+01  9.404005870e+00   1   0   0 # Ca
    245      1   2  1.430000000e+00 -2.308408295e+01 -1.534318643e+01  1.138499500e+01   1   0   0 # Ca
    246      1   5 -1.004725622e+00 -1.569735217e+01 -1.015439975e+01  1.395800387e+01   1   0   0 # Oh
    247      1   1 -1.144725622e+00 -2.120591169e+01 -1.124237115e+01  1.181534781e+01   1   0   0 # O
    248      1   5 -1.004725622e+00 -1.569648038e+01 -1.153807620e+01  1.618946289e+01   1   0   0 # Oh
    249      1   5 -1.004725622e+00 -1.569584060e+01 -1.255351617e+01  1.930895152e+01   1   0   0 # Oh
    250      1   7  1.700000000e+00 -2.122266068e+01 -1.398182734e+01  1.589345302e+01   1   0   0 # Cw
    251      1   7  1.700000000e+00 -1.752766068e+01 -1.398182734e+01  1.589345302e+01   1   0   0 # Cw
    252      1   5 -1.004725622e+00 -1.938863960e+01 -1.018229645e+01  1.835261194e+01   1   0   0 # Oh
    253      1   2  1.430000000e+00 -2.308408295e+01 -1.534318643e+01  2.078900087e+01   1   0   0 # Ca
    254      1   5 -1.004725622e+00 -1.939136789e+01 -1.171661509e+01  1.623500287e+01   1   0   0 # Oh
    255      1   9 -1.144725622e+00 -1.695214060e+01 -1.255351617e+01  1.411739380e+01   1   0   0 # Ob
    256      1   1 -1.144725622e+00 -2.131676169e+01 -1.124237115e+01  2.073890689e+01   1   0   0 # O
    257      1   5 -1.004725622e+00 -2.182954060e+01 -1.255351617e+01  1.411739380e+01   1   0   0 # Oh
    258      1   5 -1.004725622e+00 -1.831929060e+01 -1.255351617e+01  1.844369190e+01   1   0   0 # Oh
    259      1   1 -1.144725622e+00 -1.762380802e+01 -1.385908185e+01  1.181534781e+01   1   0   0 # O
    260      1   2  1.430000000e+00 -1.938908295e+01 -1.534318643e+01  1.138499500e+01   1   0   0 # Ca
    261      1   3  1.720000000e+00 -1.939142413e+01 -1.162734565e+01  1.780613218e+01   1   0   0 # Si
    262      1   5 -1.004725622e+00 -2.061019060e+01 -1.255351617e+01  1.844369190e+01   1   0   0 # Oh
    263      1   1 -1.144725622e+00 -1.750556802e+01 -1.385908185e+01  2.073890689e+01   1   0   0 # O
    264      1   5 -1.004725622e+00 -1.939084060e+01 -1.255351617e+01  1.313828423e+01   1   0   0 # Oh
    265      1   1 -1.144725622e+00 -1.762176169e+01 -1.124237115e+01  1.181534781e+01   1   0   0 # O
    266      1   3  1.720000000e+00 -1.786111060e+01 -1.255351617e+01  1.266011444e+01   1   0   0 # Si
    267      1   3  1.720000000e+00 -1.569648038e+01 -1.153807620e+01  1.459556359e+01   1   0   0 # Si
    268      1   2  1.430000000e+00 -1.938908295e+01 -1.534318643e+01  2.078900087e+01   1   0   0 # Ca
    269      1   1 -1.144725622e+00 -1.562452082e+01 -8.458280229e+00  9.353911892e+00   1   0   0 # O
    270      1   2  1.430000000e+00 -1.385185589e+01 -6.974175651e+00 -0.000000000e+00   1   0   0 # Ca
    271      1   5 -1.004725622e+00 -2.123858667e+01 -1.216296233e+01  2.573008870e+00   1   0   0 # Oh
    272      1   1 -1.144725622e+00 -1.573002715e+01 -1.107499093e+01  4.303528110e-01   1   0   0 # O
    273      1   5 -1.004725622e+00 -2.123945846e+01 -1.077928589e+01  4.804467890e+00   1   0   0 # Oh
    274      1   5 -1.004725622e+00 -1.385009824e+01 -9.763845910e+00  7.923956520e+00   1   0   0 # Oh
    275      1   1 -1.144725622e+00 -1.573537082e+01 -8.458280229e+00  4.303528110e-01   1   0   0 # O
    276      1   7  1.700000000e+00 -1.571327816e+01 -8.335534737e+00  4.508458020e+00   1   0   0 # Cw
    277      1   7  1.700000000e+00 -1.940827816e+01 -8.335534737e+00  4.508458020e+00   1   0   0 # Cw