LAMMPS data file generated by STL2LMP v6.0 / 14 Aug 2019 on Wed Feb 12 15:23:01 2020

   7016 atoms
   2377 bonds
    988 angles

   8 atom types
   4 bond types
   1 angle types

 -4.112318398e+01  1.060681602e+01 xlo xhi
 -2.306134546e+01 -7.439454570e-01 ylo yhi
 -3.415500000e+01  3.415500000e+01 zlo zhi
  1.476600000e+01  0.000000000e+00  0.000000000e+00 xy xz yz

Masses

   1  15.999000 # O
   2  40.078000 # Ca
   3  28.085000 # Si
   4   1.007940 # H
   5  15.999000 # Oh
   6  15.999000 # Ow
   7  40.078000 # Cw
   8   1.007940 # Hw

Pair Coeffs

   1 0.0000000000e+00 0.0000000000e+00 # O
   2 0.0000000000e+00 0.0000000000e+00 # Ca
   3 0.0000000000e+00 0.0000000000e+00 # Si
   4 0.0000000000e+00 0.0000000000e+00 # H
   5 0.0000000000e+00 0.0000000000e+00 # Oh
   6 0.0000000000e+00 0.0000000000e+00 # Ow
   7 0.0000000000e+00 0.0000000000e+00 # Cw
   8 0.0000000000e+00 0.0000000000e+00 # Hw

Bond Coeffs

   1 0.0000e+00 0.0000e+00 # Ow-Hw
   2 0.0000e+00 0.0000e+00 # Oh-H
   3 0.0000e+00 0.0000e+00 # O-Si
   4 0.0000e+00 0.0000e+00 # Oh-Si

Angle Coeffs

   1 0.0000e+00 0.0000e+00 # Hw-Ow-Hw

Atoms # full

      1      1   1 -1.267815087e+00 -1.561749024e+01 -1.961696127e+01  9.353911892e+00   1   0   0 # O
      2      1   2  1.430000000e+00 -1.384482531e+01 -1.813285669e+01 -0.000000000e+00   1   0   0 # Ca
      3      1   5 -1.127815087e+00 -6.465617248e+00 -1.004281293e+00  2.573008870e+00   0   0   0 # Oh
      4      1   1 -1.267815087e+00 -1.572299657e+01 -2.223367197e+01  4.303528110e-01   1   0   0 # O
      5      1   5 -1.127815087e+00 -2.123242788e+01 -2.193796693e+01  4.804467890e+00   1   0   0 # Oh
      6      1   1 -1.267815087e+00 -1.384306766e+01 -2.092252695e+01  7.923956520e+00   1   0   0 # O
      7      1   1 -1.267815087e+00 -1.572834024e+01 -1.961696127e+01  4.303528110e-01   1   0   0 # O
      8      1   7  1.700000000e+00 -1.570624758e+01 -1.949421578e+01  4.508458020e+00   1   0   0 # Cw
      9      1   7  1.700000000e+00 -1.940124757e+01 -1.949421578e+01  4.508458020e+00   1   0   0 # Cw
     10      1   2  1.430000000e+00 -1.384482531e+01 -1.813285669e+01  9.404005870e+00   1   0   0 # Ca
     11      1   5 -1.127815087e+00 -1.753754037e+01 -2.175942803e+01  4.850007870e+00   1   0   0 # Oh
     12      1   1 -1.267815087e+00 -1.997676766e+01 -2.092252695e+01  2.732398800e+00   1   0   0 # O
     13      1   1 -1.267815087e+00 -1.561214657e+01 -2.223367197e+01  9.353911892e+00   1   0   0 # O
     14      1   1 -1.267815087e+00 -1.860961766e+01 -2.092252695e+01  7.058696900e+00   1   0   0 # O
     15      1   3  1.720000000e+00 -1.596399766e+01 -2.092252695e+01  1.275119440e+00   1   0   0 # Si
     16      1   2  1.430000000e+00 -1.753982531e+01 -1.813285669e+01 -0.000000000e+00   1   0   0 # Ca
     17      1   3  1.720000000e+00 -1.537279766e+01 -2.092252695e+01  8.470436280e+00   1   0   0 # Si
     18      1   1 -1.267815087e+00 -1.942334024e+01 -1.961696127e+01  9.353911892e+00   1   0   0 # O
     19      1   1 -1.267815087e+00 -1.753806766e+01 -2.092252695e+01  1.753289230e+00   1   0   0 # O
     20      1   1 -1.267815087e+00 -1.942538657e+01 -2.223367197e+01  9.353911892e+00   1   0   0 # O
     21      1   3  1.720000000e+00 -2.123242788e+01 -2.193796693e+01  3.210568590e+00   1   0   0 # Si
     22      1   3  1.720000000e+00 -1.965899766e+01 -2.092252695e+01  8.493206270e+00   1   0   0 # Si
     23      1   2  1.430000000e+00 -1.753982531e+01 -1.813285669e+01  9.404005870e+00   1   0   0 # Ca
     24      1   2  1.430000000e+00 -1.938556766e+01 -2.092252695e+01  1.138499500e+01   1   0   0 # Ca
     25      1   5 -1.127815087e+00 -1.199883688e+01 -1.573374027e+01  1.395800387e+01   1   0   0 # Oh
     26      1   1 -1.267815087e+00 -1.199732531e+01 -1.813285669e+01  1.930895152e+01   1   0   0 # O
     27      1   7  1.700000000e+00 -1.752414539e+01 -1.956116786e+01  1.589345302e+01   1   0   0 # Cw
     28      1   7  1.700000000e+00 -1.382914539e+01 -1.956116786e+01  1.589345302e+01   1   0   0 # Cw
     29      1   2  1.430000000e+00 -1.938556766e+01 -2.092252695e+01  2.078900087e+01   1   0   0 # Ca
     30      1   5 -1.127815087e+00 -1.569285260e+01 -1.729595561e+01  1.623500287e+01   1   0   0 # Oh
     31      1   1 -1.267815087e+00 -1.325362531e+01 -1.813285669e+01  1.411739380e+01   1   0   0 # O
     32      1   5 -1.023920902e+00 -1.813102531e+01 -1.813285669e+01  1.411739380e+01   1   0   0 # Oh
     33      1   1 -1.267815087e+00 -1.392529273e+01 -1.943842237e+01  1.181534781e+01   1   0   0 # O
     34      1   2  1.430000000e+00 -1.569056766e+01 -2.092252695e+01  1.138499500e+01   1   0   0 # Ca
     35      1   5 -1.023920902e+00 -1.691167530e+01 -1.813285669e+01  1.844369190e+01   1   0   0 # Oh
     36      1   1 -1.267815087e+00 -1.569232531e+01 -1.813285669e+01  1.313828423e+01   1   0   0 # O
     37      1   1 -1.267815087e+00 -1.392324640e+01 -1.682171167e+01  1.181534781e+01   1   0   0 # O
     38      1   3  1.720000000e+00 -1.416259530e+01 -1.813285669e+01  1.266011444e+01   1   0   0 # Si
     39      1   2  1.430000000e+00 -1.569056766e+01 -2.092252695e+01  2.078900087e+01   1   0   0 # Ca
     40      1   1 -1.267815087e+00 -1.192600553e+01 -1.403762075e+01  9.353911892e+00   1   0   0 # O
     41      1   2  1.430000000e+00 -1.015334060e+01 -1.255351617e+01 -0.000000000e+00   1   0   0 # Ca
     42      1   1 -1.267815087e+00 -1.203151186e+01 -1.665433145e+01  4.303528110e-01   1   0   0 # O
     43      1   5 -1.127815087e+00 -1.754094317e+01 -1.635862640e+01  4.804467890e+00   1   0   0 # Oh
     44      1   1 -1.267815087e+00 -1.015158295e+01 -1.534318643e+01  7.923956520e+00   1   0   0 # O
     45      1   1 -1.267815087e+00 -1.203685553e+01 -1.403762075e+01  4.303528110e-01   1   0   0 # O
     46      1   7  1.700000000e+00 -1.201476286e+01 -1.391487526e+01  4.508458020e+00   1   0   0 # Cw
     47      1   7  1.700000000e+00 -1.570976287e+01 -1.391487526e+01  4.508458020e+00   1   0   0 # Cw
     48      1   5 -1.127815087e+00 -1.384878395e+01 -1.771440615e+01  6.967616940e+00   1   0   0 # Oh
     49      1   2  1.430000000e+00 -1.015334060e+01 -1.255351617e+01  9.404005870e+00   1   0   0 # Ca
     50      1   5 -1.127815087e+00 -1.384605566e+01 -1.618008751e+01  4.850007870e+00   1   0   0 # Oh
     51      1   1 -1.267815087e+00 -1.628528295e+01 -1.534318643e+01  2.732398800e+00   1   0   0 # O
     52      1   1 -1.267815087e+00 -1.192066186e+01 -1.665433145e+01  9.353911892e+00   1   0   0 # O
     53      1   1 -1.267815087e+00 -1.491813295e+01 -1.534318643e+01  7.058696900e+00   1   0   0 # O
     54      1   1 -1.267815087e+00 -1.561361553e+01 -1.403762075e+01  4.303528110e-01   1   0   0 # O
     55      1   3  1.720000000e+00 -1.227251295e+01 -1.534318643e+01  1.275119440e+00   1   0   0 # Si
     56      1   2  1.430000000e+00 -1.384834060e+01 -1.255351617e+01 -0.000000000e+00   1   0   0 # Ca
     57      1   3  1.720000000e+00 -1.384599941e+01 -1.626935696e+01  6.421137180e+00   1   0   0 # Si
     58      1   3  1.720000000e+00 -1.168131295e+01 -1.534318643e+01  8.470436280e+00   1   0   0 # Si
     59      1   1 -1.267815087e+00 -1.262723295e+01 -1.534318643e+01  7.058696900e+00   1   0   0 # O
     60      1   1 -1.267815087e+00 -1.384658295e+01 -1.534318643e+01  1.753289230e+00   1   0   0 # O
     61      1   1 -1.267815087e+00 -1.561566186e+01 -1.665433145e+01  4.303528110e-01   1   0   0 # O
     62      1   3  1.720000000e+00 -1.537631295e+01 -1.534318643e+01  1.275119440e+00   1   0   0 # Si
     63      1   2  1.430000000e+00 -1.384834060e+01 -1.255351617e+01  9.404005870e+00   1   0   0 # Ca
     64      1   1 -1.267815087e+00 -1.392141802e+01 -1.385908185e+01  2.073890689e+01   1   0   0 # O
     65      1   2  1.430000000e+00 -1.569408295e+01 -1.534318643e+01  1.138499500e+01   1   0   0 # Ca
     66      1   1 -1.267815087e+00 -1.381591169e+01 -1.124237115e+01  1.181534781e+01   1   0   0 # O
     67      1   5 -1.127815087e+00 -8.306480379e+00 -1.153807620e+01  1.618946289e+01   1   0   0 # Oh
     68      1   1 -1.267815087e+00 -8.305840596e+00 -1.255351617e+01  1.930895152e+01   1   0   0 # O
     69      1   1 -1.267815087e+00 -1.381056802e+01 -1.385908185e+01  1.181534781e+01   1   0   0 # O
     70      1   7  1.700000000e+00 -1.383266068e+01 -1.398182734e+01  1.589345302e+01   1   0   0 # Cw
     71      1   7  1.700000000e+00 -1.013766068e+01 -1.398182734e+01  1.589345302e+01   1   0   0 # Cw
     72      1   5 -1.127815087e+00 -1.199863959e+01 -1.018229645e+01  1.835261194e+01   1   0   0 # Oh
     73      1   2  1.430000000e+00 -1.569408295e+01 -1.534318643e+01  2.078900087e+01   1   0   0 # Ca
     74      1   1 -1.267815087e+00 -9.562140596e+00 -1.255351617e+01  1.411739380e+01   1   0   0 # O
     75      1   1 -1.267815087e+00 -1.392676169e+01 -1.124237115e+01  2.073890689e+01   1   0   0 # O
     76      1   1 -1.267815087e+00 -1.443954060e+01 -1.255351617e+01  1.411739380e+01   1   0   0 # O
     77      1   1 -1.267815087e+00 -1.023380802e+01 -1.385908185e+01  1.181534781e+01   1   0   0 # O
     78      1   3  1.720000000e+00 -1.357491060e+01 -1.255351617e+01  1.266011444e+01   1   0   0 # Si
     79      1   2  1.430000000e+00 -1.199908295e+01 -1.534318643e+01  1.138499500e+01   1   0   0 # Ca
     80      1   3  1.720000000e+00 -1.416611060e+01 -1.255351617e+01  1.985543128e+01   1   0   0 # Si
     81      1   1 -1.267815087e+00 -1.322019060e+01 -1.255351617e+01  1.844369190e+01   1   0   0 # O
     82      1   1 -1.267815087e+00 -1.011556802e+01 -1.385908185e+01  2.073890689e+01   1   0   0 # O
     83      1   1 -1.267815087e+00 -1.200084060e+01 -1.255351617e+01  1.313828423e+01   1   0   0 # O
     84      1   1 -1.267815087e+00 -1.011352169e+01 -1.124237115e+01  2.073890689e+01   1   0   0 # O
     85      1   1 -1.267815087e+00 -1.023176169e+01 -1.124237115e+01  1.181534781e+01   1   0   0 # O
     86      1   3  1.720000000e+00 -1.047111060e+01 -1.255351617e+01  1.266011444e+01   1   0   0 # Si
     87      1   3  1.720000000e+00 -9.879910596e+00 -1.255351617e+01  1.987820127e+01   1   0   0 # Si
     88      1   2  1.430000000e+00 -1.199908295e+01 -1.534318643e+01  2.078900087e+01   1   0   0 # Ca
     89      1   1 -1.267815087e+00 -8.234520820e+00 -8.458280228e+00  9.353911892e+00   1   0   0 # O
     90      1   2  1.430000000e+00 -6.461855887e+00 -6.974175650e+00 -0.000000000e+00   1   0   0 # Ca
     91      1   5 -1.127815087e+00 -1.384945846e+01 -1.077928589e+01  4.804467890e+00   1   0   0 # Oh
     92      1   1 -1.267815087e+00 -6.460098241e+00 -9.763845910e+00  7.923956520e+00   1   0   0 # O
     93      1   7  1.700000000e+00 -8.323278156e+00 -8.335534738e+00  4.508458020e+00   1   0   0 # Cw
     94      1   7  1.700000000e+00 -1.201827816e+01 -8.335534737e+00  4.508458020e+00   1   0   0 # Cw
     95      1   5 -1.127815087e+00 -1.015729924e+01 -1.213506563e+01  6.967616940e+00   1   0   0 # Oh
     96      1   2  1.430000000e+00 -6.461855887e+00 -6.974175650e+00  9.404005870e+00   1   0   0 # Ca
     97      1   5 -1.127815087e+00 -1.015457095e+01 -1.060074699e+01  4.850007870e+00   1   0   0 # Oh
     98      1   1 -1.267815087e+00 -8.229177148e+00 -1.107499093e+01  9.353911892e+00   1   0   0 # O
     99      1   5 -1.023920902e+00 -7.716398241e+00 -9.763845911e+00  2.732398800e+00   1   0   0 # Oh
    100      1   1 -1.267815087e+00 -1.122664824e+01 -9.763845910e+00  7.058696900e+00   1   0   0 # O
    101      1   1 -1.267815087e+00 -1.192213082e+01 -8.458280229e+00  4.303528110e-01   1   0   0 # O
    102      1   2  1.430000000e+00 -1.015685589e+01 -6.974175650e+00 -0.000000000e+00   1   0   0 # Ca
    103      1   3  1.720000000e+00 -1.015451470e+01 -1.069001644e+01  6.421137180e+00   1   0   0 # Si
    104      1   3  1.720000000e+00 -7.989828241e+00 -9.763845910e+00  8.470436280e+00   1   0   0 # Si
    105      1   1 -1.267815087e+00 -8.935748241e+00 -9.763845910e+00  7.058696900e+00   1   0   0 # O
    106      1   1 -1.267815087e+00 -1.204037082e+01 -8.458280229e+00  9.353911892e+00   1   0   0 # O
    107      1   1 -1.267815087e+00 -1.015509824e+01 -9.763845910e+00  1.753289230e+00   1   0   0 # O
    108      1   1 -1.267815087e+00 -1.204241715e+01 -1.107499093e+01  9.353911892e+00   1   0   0 # O
    109      1   1 -1.267815087e+00 -1.192417715e+01 -1.107499093e+01  4.303528110e-01   1   0   0 # O
    110      1   3  1.720000000e+00 -1.168482824e+01 -9.763845910e+00  1.275119440e+00   1   0   0 # Si
    111      1   3  1.720000000e+00 -1.227602824e+01 -9.763845911e+00  8.493206270e+00   1   0   0 # Si
    112      1   2  1.430000000e+00 -1.015685589e+01 -6.974175650e+00  9.404005870e+00   1   0   0 # Ca
    113      1   2  1.430000000e+00 -1.200259824e+01 -9.763845910e+00  1.138499500e+01   1   0   0 # Ca
    114      1   5 -1.127815087e+00 -4.615867462e+00 -4.575059227e+00  1.395800387e+01   1   0   0 # Oh
    115      1   1 -1.267815087e+00 -4.614355887e+00 -6.974175650e+00  1.930895152e+01   1   0   0 # O
    116      1   7  1.700000000e+00 -1.014117597e+01 -8.402486823e+00  1.589345302e+01   1   0   0 # Cw
    117      1   7  1.700000000e+00 -6.446175972e+00 -8.402486824e+00  1.589345302e+01   1   0   0 # Cw
    118      1   5 -1.127815087e+00 -8.307154885e+00 -4.602955929e+00  1.835261194e+01   1   0   0 # Oh
    119      1   2  1.430000000e+00 -1.200259824e+01 -9.763845910e+00  2.078900087e+01   1   0   0 # Ca
    120      1   1 -1.267815087e+00 -5.870655887e+00 -6.974175651e+00  1.411739380e+01   1   0   0 # O
    121      1   1 -1.267815087e+00 -1.074805589e+01 -6.974175650e+00  1.411739380e+01   1   0   0 # O
    122      1   5 -1.023920902e+00 -7.237805887e+00 -6.974175650e+00  1.844369190e+01   1   0   0 # Oh
    123      1   1 -1.267815087e+00 -6.542323309e+00 -8.279741332e+00  1.181534781e+01   1   0   0 # O
    124      1   2  1.430000000e+00 -8.307598242e+00 -9.763845910e+00  1.138499500e+01   1   0   0 # Ca
    125      1   1 -1.267815087e+00 -8.309355886e+00 -6.974175650e+00  1.313828423e+01   1   0   0 # O
    126      1   1 -1.267815087e+00 -6.540276980e+00 -5.663030628e+00  1.181534781e+01   1   0   0 # O
    127      1   3  1.720000000e+00 -6.779625886e+00 -6.974175650e+00  1.266011444e+01   1   0   0 # Si
    128      1   2  1.430000000e+00 -8.307598242e+00 -9.763845910e+00  2.078900087e+01   1   0   0 # Ca
    129      1   1 -1.267815087e+00 -4.543036110e+00 -2.878939708e+00  9.353911892e+00   1   0   0 # O
    130      1   2  1.430000000e+00 -2.770371178e+00 -1.394835130e+00 -0.000000000e+00   1   0   0 # Ca
    131      1   5 -1.127815087e+00 -1.015710196e+01 -6.583621814e+00  2.573008870e+00   1   0   0 # Oh
    132      1   1 -1.267815087e+00 -4.648542439e+00 -5.495650412e+00  4.303528110e-01   1   0   0 # O
    133      1   1 -1.267815087e+00 -2.768613532e+00 -4.184505390e+00  7.923956520e+00   1   0   0 # O
    134      1   1 -1.267815087e+00 -4.653886110e+00 -2.878939708e+00  4.303528110e-01   1   0   0 # O
    135      1   7  1.700000000e+00 -4.631793447e+00 -2.756194217e+00  4.508458020e+00   1   0   0 # Cw
    136      1   7  1.700000000e+00 -8.326793446e+00 -2.756194217e+00  4.508458020e+00   1   0   0 # Cw
    137      1   5 -1.127815087e+00 -6.465814533e+00 -6.555725112e+00  6.967616940e+00   1   0   0 # Oh
    138      1   2  1.430000000e+00 -2.770371178e+00 -1.394835130e+00  9.404005870e+00   1   0   0 # Ca
    139      1   1 -1.267815087e+00 -4.537692438e+00 -5.495650412e+00  9.353911892e+00   1   0   0 # O
    140      1   1 -1.267815087e+00 -8.230646110e+00 -2.878939709e+00  4.303528110e-01   1   0   0 # O
    141      1   3  1.720000000e+00 -4.889543532e+00 -4.184505390e+00  1.275119440e+00   1   0   0 # Si
    142      1   2  1.430000000e+00 -6.465371177e+00 -1.394835130e+00 -0.000000000e+00   1   0   0 # Ca
    143      1   3  1.720000000e+00 -4.298343532e+00 -4.184505390e+00  8.470436280e+00   1   0   0 # Si
    144      1   1 -1.267815087e+00 -5.244263532e+00 -4.184505390e+00  7.058696900e+00   1   0   0 # O
    145      1   1 -1.267815087e+00 -8.348886110e+00 -2.878939708e+00  9.353911892e+00   1   0   0 # O
    146      1   1 -1.267815087e+00 -6.463613532e+00 -4.184505390e+00  1.753289230e+00   1   0   0 # O
    147      1   1 -1.267815087e+00 -8.350932439e+00 -5.495650412e+00  9.353911892e+00   1   0   0 # O
    148      1   1 -1.267815087e+00 -8.232692439e+00 -5.495650413e+00  4.303528110e-01   1   0   0 # O
    149      1   3  1.720000000e+00 -7.993343532e+00 -4.184505390e+00  1.275119440e+00   1   0   0 # Si
    150      1   3  1.720000000e+00 -8.584543533e+00 -4.184505390e+00  8.493206270e+00   1   0   0 # Si
    151      1   2  1.430000000e+00 -6.465371177e+00 -1.394835130e+00  9.404005870e+00   1   0   0 # Ca
    152      1   1 -1.267815087e+00 -6.538448600e+00 -2.700400812e+00  2.073890689e+01   1   0   0 # O
    153      1   2  1.430000000e+00 -8.311113532e+00 -4.184505390e+00  1.138499500e+01   1   0   0 # Ca
    154      1   5 -1.127815087e+00 -1.568944980e+01 -2.269675724e+01  1.618946289e+01   2   0   0 # Oh
    155      1   1 -1.267815087e+00 -9.228711770e-01 -1.394835130e+00  1.930895152e+01   1   0   0 # O
    156      1   7  1.700000000e+00 -6.449691263e+00 -2.823146303e+00  1.589345302e+01   1   0   0 # Cw
    157      1   7  1.700000000e+00 -2.754691263e+00 -2.823146304e+00  1.589345302e+01   1   0   0 # Cw
    158      1   2  1.430000000e+00 -8.311113532e+00 -4.184505390e+00  2.078900087e+01   1   0   0 # Ca
    159      1   5 -1.127815087e+00 -1.938433731e+01 -2.287529613e+01  1.623500287e+01   2   0   0 # Oh
    160      1   1 -1.267815087e+00 -2.179171177e+00 -1.394835131e+00  1.411739380e+01   1   0   0 # O
    161      1   1 -1.267815087e+00 -2.130973111e+01 -2.240105219e+01  2.073890689e+01   2   0   0 # O
    162      1   5 -1.023920902e+00 -7.056571177e+00 -1.394835130e+00  1.411739380e+01   1   0   0 # Oh
    163      1   1 -1.267815087e+00 -2.850838600e+00 -2.700400812e+00  1.181534781e+01   1   0   0 # O
    164      1   2  1.430000000e+00 -4.616113532e+00 -4.184505390e+00  1.138499500e+01   1   0   0 # Ca
    165      1   3  1.720000000e+00 -6.783141178e+00 -1.394835130e+00  1.985543128e+01   1   0   0 # Si
    166      1   1 -1.267815087e+00 -5.837221177e+00 -1.394835130e+00  1.844369190e+01   1   0   0 # O
    167      1   1 -1.267815087e+00 -2.732598599e+00 -2.700400812e+00  2.073890689e+01   1   0   0 # O
    168      1   1 -1.267815087e+00 -4.617871177e+00 -1.394835130e+00  1.313828423e+01   1   0   0 # O
    169      1   1 -1.267815087e+00 -1.749649111e+01 -2.240105219e+01  2.073890689e+01   2   0   0 # O
    170      1   1 -1.267815087e+00 -1.761473111e+01 -2.240105219e+01  1.181534781e+01   2   0   0 # O
    171      1   3  1.720000000e+00 -3.088141177e+00 -1.394835130e+00  1.266011444e+01   1   0   0 # Si
    172      1   3  1.720000000e+00 -2.496941177e+00 -1.394835130e+00  1.987820127e+01   1   0   0 # Si
    173      1   2  1.430000000e+00 -4.616113532e+00 -4.184505390e+00  2.078900087e+01   1   0   0 # Ca
    174      1   1 -1.267815087e+00 -2.300749024e+01 -1.961696127e+01  9.353911892e+00   1   0   0 # O
    175      1   2  1.430000000e+00 -2.123482531e+01 -1.813285669e+01 -0.000000000e+00   1   0   0 # Ca
    176      1   5 -1.127815087e+00 -1.385561725e+01 -1.004281294e+00  2.573008870e+00   0   0   0 # Oh
    177      1   1 -1.267815087e+00 -2.311299657e+01 -2.223367197e+01  4.303528110e-01   1   0   0 # O
    178      1   1 -1.267815087e+00 -2.123306766e+01 -2.092252695e+01  7.923956520e+00   1   0   0 # O
    179      1   1 -1.267815087e+00 -2.311834024e+01 -1.961696127e+01  4.303528110e-01   1   0   0 # O
    180      1   7  1.700000000e+00 -2.309624757e+01 -1.949421578e+01  4.508458020e+00   1   0   0 # Cw
    181      1   7  1.700000000e+00 -2.679124757e+01 -1.949421578e+01  4.508458020e+00   1   0   0 # Cw
    182      1   5 -1.127815087e+00 -1.016432982e+01 -9.763845910e-01  6.967616940e+00   0   0   0 # Oh
    183      1   2  1.430000000e+00 -2.123482531e+01 -1.813285669e+01  9.404005870e+00   1   0   0 # Ca
    184      1   1 -1.267815087e+00 -2.300214657e+01 -2.223367197e+01  9.353911892e+00   1   0   0 # O
    185      1   1 -1.267815087e+00 -2.248936766e+01 -2.092252695e+01  2.732398800e+00   1   0   0 # O
    186      1   1 -1.267815087e+00 -2.599961766e+01 -2.092252695e+01  7.058696900e+00   1   0   0 # O
    187      1   1 -1.267815087e+00 -2.669510024e+01 -1.961696127e+01  4.303528110e-01   1   0   0 # O
    188      1   3  1.720000000e+00 -2.335399766e+01 -2.092252695e+01  1.275119440e+00   1   0   0 # Si
    189      1   2  1.430000000e+00 -2.492982531e+01 -1.813285669e+01 -0.000000000e+00   1   0   0 # Ca
    190      1   3  1.720000000e+00 -2.276279766e+01 -2.092252695e+01  8.470436280e+00   1   0   0 # Si
    191      1   1 -1.267815087e+00 -2.681334024e+01 -1.961696127e+01  9.353911892e+00   1   0   0 # O
    192      1   1 -1.267815087e+00 -2.492806766e+01 -2.092252695e+01  1.753289230e+00   1   0   0 # O
    193      1   1 -1.267815087e+00 -2.681538657e+01 -2.223367197e+01  9.353911892e+00   1   0   0 # O
    194      1   1 -1.267815087e+00 -2.669714657e+01 -2.223367197e+01  4.303528110e-01   1   0   0 # O
    195      1   3  1.720000000e+00 -2.645779766e+01 -2.092252695e+01  1.275119440e+00   1   0   0 # Si
    196      1   3  1.720000000e+00 -2.704899766e+01 -2.092252695e+01  8.493206270e+00   1   0   0 # Si
    197      1   2  1.430000000e+00 -2.492982531e+01 -1.813285669e+01  9.404005870e+00   1   0   0 # Ca
    198      1   1 -1.267815087e+00 -2.500290273e+01 -1.943842237e+01  2.073890689e+01   1   0   0 # O
    199      1   2  1.430000000e+00 -2.677556766e+01 -2.092252695e+01  1.138499500e+01   1   0   0 # Ca
    200      1   5 -1.127815087e+00 -1.938883688e+01 -1.573374027e+01  1.395800387e+01   1   0   0 # Oh
    201      1   1 -1.267815087e+00 -2.489739640e+01 -1.682171167e+01  1.181534781e+01   1   0   0 # O
    202      1   5 -1.023920902e+00 -1.938732531e+01 -1.813285669e+01  1.930895152e+01   1   0   0 # Oh
    203      1   1 -1.267815087e+00 -2.489205273e+01 -1.943842237e+01  1.181534781e+01   1   0   0 # O
    204      1   7  1.700000000e+00 -2.491414539e+01 -1.956116786e+01  1.589345302e+01   1   0   0 # Cw
    205      1   7  1.700000000e+00 -2.121914539e+01 -1.956116786e+01  1.589345302e+01   1   0   0 # Cw
    206      1   2  1.430000000e+00 -2.677556766e+01 -2.092252695e+01  2.078900087e+01   1   0   0 # Ca
    207      1   5 -1.127815087e+00 -2.308285260e+01 -1.729595561e+01  1.623500287e+01   1   0   0 # Oh
    208      1   1 -1.267815087e+00 -2.500824640e+01 -1.682171167e+01  2.073890689e+01   1   0   0 # O
    209      1   1 -1.267815087e+00 -2.131529273e+01 -1.943842237e+01  1.181534781e+01   1   0   0 # O
    210      1   3  1.720000000e+00 -2.465639531e+01 -1.813285669e+01  1.266011444e+01   1   0   0 # Si
    211      1   2  1.430000000e+00 -2.308056766e+01 -2.092252695e+01  1.138499500e+01   1   0   0 # Ca
    212      1   3  1.720000000e+00 -2.524759531e+01 -1.813285669e+01  1.985543128e+01   1   0   0 # Si
    213      1   1 -1.267815087e+00 -2.430167530e+01 -1.813285669e+01  1.844369190e+01   1   0   0 # O
    214      1   1 -1.267815087e+00 -2.308232531e+01 -1.813285669e+01  1.313828423e+01   1   0   0 # O
    215      1   1 -1.267815087e+00 -2.131324640e+01 -1.682171167e+01  1.181534781e+01   1   0   0 # O
    216      1   3  1.720000000e+00 -2.155259531e+01 -1.813285669e+01  1.266011444e+01   1   0   0 # Si
    217      1   2  1.430000000e+00 -2.308056766e+01 -2.092252695e+01  2.078900087e+01   1   0   0 # Ca
    218      1   1 -1.267815087e+00 -1.931600553e+01 -1.403762075e+01  9.353911892e+00   1   0   0 # O
    219      1   2  1.430000000e+00 -1.754334060e+01 -1.255351617e+01 -0.000000000e+00   1   0   0 # Ca
    220      1   5 -1.127815087e+00 -2.493007138e+01 -1.774230285e+01  2.573008870e+00   1   0   0 # Oh
    221      1   1 -1.267815087e+00 -1.942151186e+01 -1.665433145e+01  4.303528110e-01   1   0   0 # O
    222      1   1 -1.267815087e+00 -1.754158295e+01 -1.534318643e+01  7.923956520e+00   1   0   0 # O
    223      1   1 -1.267815087e+00 -1.942685553e+01 -1.403762075e+01  4.303528110e-01   1   0   0 # O
    224      1   7  1.700000000e+00 -1.940476286e+01 -1.391487526e+01  4.508458020e+00   1   0   0 # Cw
    225      1   7  1.700000000e+00 -2.309976286e+01 -1.391487526e+01  4.508458020e+00   1   0   0 # Cw
    226      1   5 -1.127815087e+00 -2.123878395e+01 -1.771440615e+01  6.967616940e+00   1   0   0 # Oh
    227      1   2  1.430000000e+00 -1.754334060e+01 -1.255351617e+01  9.404005870e+00   1   0   0 # Ca
    228      1   5 -1.023920902e+00 -2.367528295e+01 -1.534318643e+01  2.732398800e+00   1   0   0 # Oh
    229      1   1 -1.267815087e+00 -1.931066186e+01 -1.665433145e+01  9.353911892e+00   1   0   0 # O
    230      1   3  1.720000000e+00 -1.966251295e+01 -1.534318643e+01  1.275119440e+00   1   0   0 # Si
    231      1   2  1.430000000e+00 -2.123834060e+01 -1.255351617e+01 -0.000000000e+00   1   0   0 # Ca
    232      1   3  1.720000000e+00 -1.907131295e+01 -1.534318643e+01  8.470436280e+00   1   0   0 # Si
    233      1   1 -1.267815087e+00 -2.001723295e+01 -1.534318643e+01  7.058696900e+00   1   0   0 # O
    234      1   1 -1.267815087e+00 -2.312185553e+01 -1.403762075e+01  9.353911892e+00   1   0   0 # O
    235      1   1 -1.267815087e+00 -2.123658295e+01 -1.534318643e+01  1.753289230e+00   1   0   0 # O
    236      1   1 -1.267815087e+00 -2.312390186e+01 -1.665433145e+01  9.353911892e+00   1   0   0 # O
    237      1   3  1.720000000e+00 -2.335751295e+01 -1.534318643e+01  8.493206270e+00   1   0   0 # Si
    238      1   2  1.430000000e+00 -2.123834060e+01 -1.255351617e+01  9.404005870e+00   1   0   0 # Ca
    239      1   1 -1.267815087e+00 -2.131141802e+01 -1.385908185e+01  2.073890689e+01   1   0   0 # O
    240      1   2  1.430000000e+00 -2.308408295e+01 -1.534318643e+01  1.138499500e+01   1   0   0 # Ca
    241      1   5 -1.127815087e+00 -1.569735217e+01 -1.015439975e+01  1.395800387e+01   1   0   0 # Oh
    242      1   1 -1.267815087e+00 -2.120591169e+01 -1.124237115e+01  1.181534781e+01   1   0   0 # O
    243      1   1 -1.267815087e+00 -1.569584060e+01 -1.255351617e+01  1.930895152e+01   1   0   0 # O
    244      1   1 -1.267815087e+00 -2.120056802e+01 -1.385908185e+01  1.181534781e+01   1   0   0 # O
    245      1   7  1.700000000e+00 -2.122266068e+01 -1.398182734e+01  1.589345302e+01   1   0   0 # Cw
    246      1   7  1.700000000e+00 -1.752766068e+01 -1.398182734e+01  1.589345302e+01   1   0   0 # Cw
    247      1   5 -1.127815087e+00 -1.938863960e+01 -1.018229645e+01  1.835261194e+01   1   0   0 # Oh
    248      1   2  1.430000000e+00 -2.308408295e+01 -1.534318643e+01  2.078900087e+01   1   0   0 # Ca
    249      1   1 -1.267815087e+00 -2.131676169e+01 -1.124237115e+01  2.073890689e+01   1   0   0 # O
    250      1   1 -1.267815087e+00 -1.762380802e+01 -1.385908185e+01  1.181534781e+01   1   0   0 # O
    251      1   3  1.720000000e+00 -2.096491060e+01 -1.255351617e+01  1.266011444e+01   1   0   0 # Si
    252      1   2  1.430000000e+00 -1.938908295e+01 -1.534318643e+01  1.138499500e+01   1   0   0 # Ca
    253      1   3  1.720000000e+00 -2.155611060e+01 -1.255351617e+01  1.985543128e+01   1   0   0 # Si
    254      1   1 -1.267815087e+00 -2.061019060e+01 -1.255351617e+01  1.844369190e+01   1   0   0 # O
    255      1   1 -1.267815087e+00 -1.939084060e+01 -1.255351617e+01  1.313828423e+01   1   0   0 # O
    256      1   1 -1.267815087e+00 -1.762176169e+01 -1.124237115e+01  1.181534781e+01   1   0   0 # O
    257      1   3  1.720000000e+00 -1.786111060e+01 -1.255351617e+01  1.266011444e+01   1   0   0 # Si
    258      1   2  1.430000000e+00 -1.938908295e+01 -1.534318643e+01  2.078900087e+01   1   0   0 # Ca
    259      1   1 -1.267815087e+00 -1.562452082e+01 -8.458280229e+00  9.353911892e+00   1   0   0 # O
    260      1   2  1.430000000e+00 -1.385185589e+01 -6.974175651e+00 -0.000000000e+00   1   0   0 # Ca
    261      1   5 -1.127815087e+00 -2.123945846e+01 -1.077928589e+01  4.804467890e+00   1   0   0 # Oh
    262      1   1 -1.267815087e+00 -1.385009824e+01 -9.763845910e+00  7.923956520e+00   1   0   0 # O
    263      1   7  1.700000000e+00 -1.571327816e+01 -8.335534737e+00  4.508458020e+00   1   0   0 # Cw
    264      1   7  1.700000000e+00 -1.940827816e+01 -8.335534737e+00  4.508458020e+00   1   0   0 # Cw
    265      1   2  1.430000000e+00 -1.385185589e+01 -6.974175651e+00  9.404005870e+00   1   0   0 # Ca
    266      1   5 -1.127815087e+00 -1.754457095e+01 -1.060074699e+01  4.850007870e+00   1   0   0 # Oh
    267      1   1 -1.267815087e+00 -1.998379824e+01 -9.763845910e+00  2.732398800e+00   1   0   0 # O
    268      1   1 -1.267815087e+00 -1.561917715e+01 -1.107499093e+01  9.353911892e+00   1   0   0 # O
    269      1   5 -1.023920902e+00 -1.510639824e+01 -9.763845910e+00  2.732398800e+00   1   0   0 # Oh
    270      1   1 -1.267815087e+00 -1.931213082e+01 -8.458280229e+00  4.303528110e-01   1   0   0 # O
    271      1   2  1.430000000e+00 -1.754685589e+01 -6.974175650e+00 -0.000000000e+00   1   0   0 # Ca
    272      1   3  1.720000000e+00 -1.537982824e+01 -9.763845911e+00  8.470436280e+00   1   0   0 # Si
    273      1   1 -1.267815087e+00 -1.632574824e+01 -9.763845910e+00  7.058696900e+00   1   0   0 # O
    274      1   1 -1.267815087e+00 -1.943037082e+01 -8.458280228e+00  9.353911892e+00   1   0   0 # O
    275      1   1 -1.267815087e+00 -1.754509824e+01 -9.763845910e+00  1.753289230e+00   1   0   0 # O
    276      1   1 -1.267815087e+00 -1.943241715e+01 -1.107499093e+01  9.353911892e+00   1   0   0 # O
    277      1   1 -1.267815087e+00 -1.931417715e+01 -1.107499093e+01  4.303528110e-01   1   0   0 # O
    278      1   3  1.720000000e+00 -1.907482824e+01 -9.763845910e+00  1.275119440e+00   1   0   0 # Si