LAMMPS data file generated by STL2LMP v6.1 / 12 Feb 2020 on Wed Feb 12 18:04:30 2020

   7032 atoms
   2356 bonds
    827 angles

   9 atom types
   4 bond types
   1 angle types

 -4.112318398e+01  1.060681602e+01 xlo xhi
 -2.306134546e+01 -7.439454570e-01 ylo yhi
 -3.415500000e+01  3.415500000e+01 zlo zhi
  1.476600000e+01  0.000000000e+00  0.000000000e+00 xy xz yz

Masses

   1  15.999000 # O
   2  40.078000 # Ca
   3  28.085000 # Si
   4   1.007940 # H
   5  15.999000 # Oh
   6  15.999000 # Ow
   7  40.078000 # Cw
   8   1.007940 # Hw
   9  15.999000 # Ob

Pair Coeffs

   1 0.0000000000e+00 0.0000000000e+00 # O
   2 0.0000000000e+00 0.0000000000e+00 # Ca
   3 0.0000000000e+00 0.0000000000e+00 # Si
   4 0.0000000000e+00 0.0000000000e+00 # H
   5 0.0000000000e+00 0.0000000000e+00 # Oh
   6 0.0000000000e+00 0.0000000000e+00 # Ow
   7 0.0000000000e+00 0.0000000000e+00 # Cw
   8 0.0000000000e+00 0.0000000000e+00 # Hw
   9 0.0000000000e+00 0.0000000000e+00 # Ob

Bond Coeffs

   1 0.0000e+00 0.0000e+00 # Ow-Hw
   2 0.0000e+00 0.0000e+00 # Oh-H
   3 0.0000e+00 0.0000e+00 # O-Si
   4 0.0000e+00 0.0000e+00 # Oh-Si

Angle Coeffs

   1 0.0000e+00 0.0000e+00 # Hw-Ow-Hw

Atoms # full

      1      1   1 -1.298717489e+00 -1.561749024e+01 -1.961696127e+01  9.353911892e+00   1   0   0 # O
      2      1   2  1.430000000e+00 -1.384482531e+01 -1.813285669e+01 -0.000000000e+00   1   0   0 # Ca
      3      1   1 -1.298717489e+00 -1.572299657e+01 -2.223367197e+01  4.303528110e-01   1   0   0 # O
      4      1   5 -1.158717489e+00 -2.123242788e+01 -2.193796693e+01  4.804467890e+00   1   0   0 # Oh
      5      1   9 -1.298717489e+00 -1.384306766e+01 -2.092252695e+01  7.923956520e+00   1   0   0 # Ob
      6      1   1 -1.298717489e+00 -1.572834024e+01 -1.961696127e+01  4.303528110e-01   1   0   0 # O
      7      1   7  1.700000000e+00 -1.570624758e+01 -1.949421578e+01  4.508458020e+00   1   0   0 # Cw
      8      1   7  1.700000000e+00 -1.940124757e+01 -1.949421578e+01  4.508458020e+00   1   0   0 # Cw
      9      1   2  1.430000000e+00 -1.384482531e+01 -1.813285669e+01  9.404005870e+00   1   0   0 # Ca
     10      1   5 -1.158717489e+00 -1.753754037e+01 -2.175942803e+01  4.850007870e+00   1   0   0 # Oh
     11      1   1 -1.298717489e+00 -1.561214657e+01 -2.223367197e+01  9.353911892e+00   1   0   0 # O
     12      1   5 -1.158717489e+00 -1.860961766e+01 -2.092252695e+01  7.058696900e+00   1   0   0 # Oh
     13      1   1 -1.298717489e+00 -1.930510024e+01 -1.961696127e+01  4.303528110e-01   1   0   0 # O
     14      1   3  1.720000000e+00 -1.596399766e+01 -2.092252695e+01  1.275119440e+00   1   0   0 # Si
     15      1   2  1.430000000e+00 -1.753982531e+01 -1.813285669e+01 -0.000000000e+00   1   0   0 # Ca
     16      1   3  1.720000000e+00 -1.537279766e+01 -2.092252695e+01  8.470436280e+00   1   0   0 # Si
     17      1   1 -1.298717489e+00 -1.942334024e+01 -1.961696127e+01  9.353911892e+00   1   0   0 # O
     18      1   9 -1.298717489e+00 -1.753806766e+01 -2.092252695e+01  1.753289230e+00   1   0   0 # Ob
     19      1   1 -1.298717489e+00 -1.942538657e+01 -2.223367197e+01  9.353911892e+00   1   0   0 # O
     20      1   1 -1.298717489e+00 -1.930714657e+01 -2.223367197e+01  4.303528110e-01   1   0   0 # O
     21      1   3  1.720000000e+00 -1.906779766e+01 -2.092252695e+01  1.275119440e+00   1   0   0 # Si
     22      1   3  1.720000000e+00 -1.965899766e+01 -2.092252695e+01  8.493206270e+00   1   0   0 # Si
     23      1   2  1.430000000e+00 -1.753982531e+01 -1.813285669e+01  9.404005870e+00   1   0   0 # Ca
     24      1   1 -1.298717489e+00 -1.761290273e+01 -1.943842237e+01  2.073890689e+01   1   0   0 # O
     25      1   2  1.430000000e+00 -1.938556766e+01 -2.092252695e+01  1.138499500e+01   1   0   0 # Ca
     26      1   1 -1.298717489e+00 -1.750739640e+01 -1.682171167e+01  1.181534781e+01   1   0   0 # O
     27      1   5 -1.158717489e+00 -1.199796509e+01 -1.711741672e+01  1.618946289e+01   1   0   0 # Oh
     28      1   5 -1.158717489e+00 -1.199732531e+01 -1.813285669e+01  1.930895152e+01   1   0   0 # Oh
     29      1   1 -1.298717489e+00 -1.750205273e+01 -1.943842237e+01  1.181534781e+01   1   0   0 # O
     30      1   7  1.700000000e+00 -1.752414539e+01 -1.956116786e+01  1.589345302e+01   1   0   0 # Cw
     31      1   7  1.700000000e+00 -1.382914539e+01 -1.956116786e+01  1.589345302e+01   1   0   0 # Cw
     32      1   2  1.430000000e+00 -1.938556766e+01 -2.092252695e+01  2.078900087e+01   1   0   0 # Ca
     33      1   5 -1.158717489e+00 -1.569285260e+01 -1.729595561e+01  1.623500287e+01   1   0   0 # Oh
     34      1   5 -1.158717489e+00 -1.325362531e+01 -1.813285669e+01  1.411739380e+01   1   0   0 # Oh
     35      1   1 -1.298717489e+00 -1.761824640e+01 -1.682171167e+01  2.073890689e+01   1   0   0 # O
     36      1   9 -1.298717489e+00 -1.813102531e+01 -1.813285669e+01  1.411739380e+01   1   0   0 # Ob
     37      1   1 -1.298717489e+00 -1.392529273e+01 -1.943842237e+01  1.181534781e+01   1   0   0 # O
     38      1   3  1.720000000e+00 -1.726639530e+01 -1.813285669e+01  1.266011444e+01   1   0   0 # Si
     39      1   2  1.430000000e+00 -1.569056766e+01 -2.092252695e+01  1.138499500e+01   1   0   0 # Ca
     40      1   3  1.720000000e+00 -1.785759531e+01 -1.813285669e+01  1.985543128e+01   1   0   0 # Si
     41      1   5 -1.158717489e+00 -1.691167530e+01 -1.813285669e+01  1.844369190e+01   1   0   0 # Oh
     42      1   9 -1.298717489e+00 -1.569232531e+01 -1.813285669e+01  1.313828423e+01   1   0   0 # Ob
     43      1   1 -1.298717489e+00 -1.392324640e+01 -1.682171167e+01  1.181534781e+01   1   0   0 # O
     44      1   3  1.720000000e+00 -1.416259530e+01 -1.813285669e+01  1.266011444e+01   1   0   0 # Si
     45      1   2  1.430000000e+00 -1.569056766e+01 -2.092252695e+01  2.078900087e+01   1   0   0 # Ca
     46      1   2  1.430000000e+00 -1.015334060e+01 -1.255351617e+01 -0.000000000e+00   1   0   0 # Ca
     47      1   1 -1.298717489e+00 -1.203151186e+01 -1.665433145e+01  4.303528110e-01   1   0   0 # O
     48      1   5 -1.158717489e+00 -1.754094317e+01 -1.635862640e+01  4.804467890e+00   1   0   0 # Oh
     49      1   5 -1.158717489e+00 -1.015158295e+01 -1.534318643e+01  7.923956520e+00   1   0   0 # Oh
     50      1   1 -1.298717489e+00 -1.203685553e+01 -1.403762075e+01  4.303528110e-01   1   0   0 # O
     51      1   7  1.700000000e+00 -1.201476286e+01 -1.391487526e+01  4.508458020e+00   1   0   0 # Cw
     52      1   7  1.700000000e+00 -1.570976287e+01 -1.391487526e+01  4.508458020e+00   1   0   0 # Cw
     53      1   5 -1.158717489e+00 -1.384878395e+01 -1.771440615e+01  6.967616940e+00   1   0   0 # Oh
     54      1   2  1.430000000e+00 -1.015334060e+01 -1.255351617e+01  9.404005870e+00   1   0   0 # Ca
     55      1   5 -1.158717489e+00 -1.628528295e+01 -1.534318643e+01  2.732398800e+00   1   0   0 # Oh
     56      1   5 -1.158717489e+00 -1.140788295e+01 -1.534318643e+01  2.732398800e+00   1   0   0 # Oh
     57      1   5 -1.158717489e+00 -1.491813295e+01 -1.534318643e+01  7.058696900e+00   1   0   0 # Oh
     58      1   1 -1.298717489e+00 -1.561361553e+01 -1.403762075e+01  4.303528110e-01   1   0   0 # O
     59      1   3  1.720000000e+00 -1.227251295e+01 -1.534318643e+01  1.275119440e+00   1   0   0 # Si
     60      1   2  1.430000000e+00 -1.384834060e+01 -1.255351617e+01 -0.000000000e+00   1   0   0 # Ca
     61      1   1 -1.298717489e+00 -1.573185553e+01 -1.403762075e+01  9.353911892e+00   1   0   0 # O
     62      1   9 -1.298717489e+00 -1.384658295e+01 -1.534318643e+01  1.753289230e+00   1   0   0 # Ob
     63      1   1 -1.298717489e+00 -1.573390186e+01 -1.665433145e+01  9.353911892e+00   1   0   0 # O
     64      1   1 -1.298717489e+00 -1.561566186e+01 -1.665433145e+01  4.303528110e-01   1   0   0 # O
     65      1   3  1.720000000e+00 -1.537631295e+01 -1.534318643e+01  1.275119440e+00   1   0   0 # Si
     66      1   3  1.720000000e+00 -1.596751295e+01 -1.534318643e+01  8.493206270e+00   1   0   0 # Si
     67      1   2  1.430000000e+00 -1.384834060e+01 -1.255351617e+01  9.404005870e+00   1   0   0 # Ca
     68      1   1 -1.298717489e+00 -1.392141802e+01 -1.385908185e+01  2.073890689e+01   1   0   0 # O
     69      1   2  1.430000000e+00 -1.569408295e+01 -1.534318643e+01  1.138499500e+01   1   0   0 # Ca
     70      1   5 -1.158717489e+00 -8.307352171e+00 -1.015439975e+01  1.395800387e+01   1   0   0 # Oh
     71      1   1 -1.298717489e+00 -1.381591169e+01 -1.124237115e+01  1.181534781e+01   1   0   0 # O
     72      1   5 -1.158717489e+00 -8.306480379e+00 -1.153807620e+01  1.618946289e+01   1   0   0 # Oh
     73      1   9 -1.298717489e+00 -8.305840596e+00 -1.255351617e+01  1.930895152e+01   1   0   0 # Ob
     74      1   1 -1.298717489e+00 -1.381056802e+01 -1.385908185e+01  1.181534781e+01   1   0   0 # O
     75      1   7  1.700000000e+00 -1.383266068e+01 -1.398182734e+01  1.589345302e+01   1   0   0 # Cw
     76      1   7  1.700000000e+00 -1.013766068e+01 -1.398182734e+01  1.589345302e+01   1   0   0 # Cw
     77      1   5 -1.158717489e+00 -1.199863959e+01 -1.018229645e+01  1.835261194e+01   1   0   0 # Oh
     78      1   2  1.430000000e+00 -1.569408295e+01 -1.534318643e+01  2.078900087e+01   1   0   0 # Ca
     79      1   9 -1.298717489e+00 -9.562140596e+00 -1.255351617e+01  1.411739380e+01   1   0   0 # Ob
     80      1   1 -1.298717489e+00 -1.392676169e+01 -1.124237115e+01  2.073890689e+01   1   0   0 # O
     81      1   5 -1.158717489e+00 -1.443954060e+01 -1.255351617e+01  1.411739380e+01   1   0   0 # Oh
     82      1   1 -1.298717489e+00 -1.023380802e+01 -1.385908185e+01  1.181534781e+01   1   0   0 # O
     83      1   3  1.720000000e+00 -1.357491060e+01 -1.255351617e+01  1.266011444e+01   1   0   0 # Si
     84      1   2  1.430000000e+00 -1.199908295e+01 -1.534318643e+01  1.138499500e+01   1   0   0 # Ca
     85      1   3  1.720000000e+00 -1.416611060e+01 -1.255351617e+01  1.985543128e+01   1   0   0 # Si
     86      1   5 -1.158717489e+00 -1.322019060e+01 -1.255351617e+01  1.844369190e+01   1   0   0 # Oh
     87      1   1 -1.298717489e+00 -1.011556802e+01 -1.385908185e+01  2.073890689e+01   1   0   0 # O
     88      1   9 -1.298717489e+00 -1.200084060e+01 -1.255351617e+01  1.313828423e+01   1   0   0 # Ob
     89      1   1 -1.298717489e+00 -1.011352169e+01 -1.124237115e+01  2.073890689e+01   1   0   0 # O
     90      1   1 -1.298717489e+00 -1.023176169e+01 -1.124237115e+01  1.181534781e+01   1   0   0 # O
     91      1   3  1.720000000e+00 -1.047111060e+01 -1.255351617e+01  1.266011444e+01   1   0   0 # Si
     92      1   3  1.720000000e+00 -8.306480379e+00 -1.153807620e+01  1.459556359e+01   1   0   0 # Si
     93      1   3  1.720000000e+00 -9.879910596e+00 -1.255351617e+01  1.987820127e+01   1   0   0 # Si
     94      1   2  1.430000000e+00 -1.199908295e+01 -1.534318643e+01  2.078900087e+01   1   0   0 # Ca
     95      1   1 -1.298717489e+00 -8.234520820e+00 -8.458280228e+00  9.353911892e+00   1   0   0 # O
     96      1   2  1.430000000e+00 -6.461855887e+00 -6.974175650e+00 -0.000000000e+00   1   0   0 # Ca
     97      1   5 -1.158717489e+00 -1.384858667e+01 -1.216296233e+01  2.573008870e+00   1   0   0 # Oh
     98      1   1 -1.298717489e+00 -8.340027148e+00 -1.107499093e+01  4.303528110e-01   1   0   0 # O
     99      1   5 -1.158717489e+00 -6.460098241e+00 -9.763845910e+00  7.923956520e+00   1   0   0 # Oh
    100      1   1 -1.298717489e+00 -8.345370819e+00 -8.458280229e+00  4.303528110e-01   1   0   0 # O
    101      1   7  1.700000000e+00 -8.323278156e+00 -8.335534738e+00  4.508458020e+00   1   0   0 # Cw
    102      1   7  1.700000000e+00 -1.201827816e+01 -8.335534737e+00  4.508458020e+00   1   0   0 # Cw
    103      1   5 -1.158717489e+00 -1.015729924e+01 -1.213506563e+01  6.967616940e+00   1   0   0 # Oh
    104      1   2  1.430000000e+00 -6.461855887e+00 -6.974175650e+00  9.404005870e+00   1   0   0 # Ca
    105      1   5 -1.158717489e+00 -1.015457095e+01 -1.060074699e+01  4.850007870e+00   1   0   0 # Oh
    106      1   1 -1.298717489e+00 -8.229177148e+00 -1.107499093e+01  9.353911892e+00   1   0   0 # O
    107      1   5 -1.158717489e+00 -7.716398241e+00 -9.763845911e+00  2.732398800e+00   1   0   0 # Oh
    108      1   9 -1.298717489e+00 -1.122664824e+01 -9.763845910e+00  7.058696900e+00   1   0   0 # Ob
    109      1   1 -1.298717489e+00 -1.192213082e+01 -8.458280229e+00  4.303528110e-01   1   0   0 # O
    110      1   3  1.720000000e+00 -8.581028241e+00 -9.763845910e+00  1.275119440e+00   1   0   0 # Si
    111      1   2  1.430000000e+00 -1.015685589e+01 -6.974175650e+00 -0.000000000e+00   1   0   0 # Ca
    112      1   3  1.720000000e+00 -1.015451470e+01 -1.069001644e+01  6.421137180e+00   1   0   0 # Si
    113      1   3  1.720000000e+00 -7.989828241e+00 -9.763845910e+00  8.470436280e+00   1   0   0 # Si
    114      1   9 -1.298717489e+00 -8.935748241e+00 -9.763845910e+00  7.058696900e+00   1   0   0 # Ob
    115      1   1 -1.298717489e+00 -1.204037082e+01 -8.458280229e+00  9.353911892e+00   1   0   0 # O
    116      1   9 -1.298717489e+00 -1.015509824e+01 -9.763845910e+00  1.753289230e+00   1   0   0 # Ob
    117      1   1 -1.298717489e+00 -1.204241715e+01 -1.107499093e+01  9.353911892e+00   1   0   0 # O
    118      1   1 -1.298717489e+00 -1.192417715e+01 -1.107499093e+01  4.303528110e-01   1   0   0 # O
    119      1   3  1.720000000e+00 -1.168482824e+01 -9.763845910e+00  1.275119440e+00   1   0   0 # Si
    120      1   3  1.720000000e+00 -1.227602824e+01 -9.763845911e+00  8.493206270e+00   1   0   0 # Si
    121      1   2  1.430000000e+00 -1.015685589e+01 -6.974175650e+00  9.404005870e+00   1   0   0 # Ca
    122      1   2  1.430000000e+00 -1.200259824e+01 -9.763845910e+00  1.138499500e+01   1   0   0 # Ca
    123      1   1 -1.298717489e+00 -1.012442698e+01 -5.663030628e+00  1.181534781e+01   1   0   0 # O
    124      1   5 -1.158717489e+00 -4.614995670e+00 -5.958735675e+00  1.618946289e+01   1   0   0 # Oh
    125      1   9 -1.298717489e+00 -4.614355887e+00 -6.974175650e+00  1.930895152e+01   1   0   0 # Ob
    126      1   1 -1.298717489e+00 -1.011908331e+01 -8.279741332e+00  1.181534781e+01   1   0   0 # O
    127      1   7  1.700000000e+00 -1.014117597e+01 -8.402486823e+00  1.589345302e+01   1   0   0 # Cw
    128      1   7  1.700000000e+00 -6.446175972e+00 -8.402486824e+00  1.589345302e+01   1   0   0 # Cw
    129      1   5 -1.158717489e+00 -8.307154885e+00 -4.602955929e+00  1.835261194e+01   1   0   0 # Oh
    130      1   2  1.430000000e+00 -1.200259824e+01 -9.763845910e+00  2.078900087e+01   1   0   0 # Ca
    131      1   5 -1.158717489e+00 -1.074805589e+01 -6.974175650e+00  1.411739380e+01   1   0   0 # Oh
    132      1   5 -1.158717489e+00 -7.237805887e+00 -6.974175650e+00  1.844369190e+01   1   0   0 # Oh
    133      1   1 -1.298717489e+00 -6.542323309e+00 -8.279741332e+00  1.181534781e+01   1   0   0 # O
    134      1   3  1.720000000e+00 -9.883425887e+00 -6.974175651e+00  1.266011444e+01   1   0   0 # Si
    135      1   2  1.430000000e+00 -8.307598242e+00 -9.763845910e+00  1.138499500e+01   1   0   0 # Ca
    136      1   1 -1.298717489e+00 -6.424083308e+00 -8.279741332e+00  2.073890689e+01   1   0   0 # O
    137      1   9 -1.298717489e+00 -8.309355886e+00 -6.974175650e+00  1.313828423e+01   1   0   0 # Ob
    138      1   1 -1.298717489e+00 -6.422036980e+00 -5.663030628e+00  2.073890689e+01   1   0   0 # O
    139      1   1 -1.298717489e+00 -6.540276980e+00 -5.663030628e+00  1.181534781e+01   1   0   0 # O
    140      1   3  1.720000000e+00 -6.779625886e+00 -6.974175650e+00  1.266011444e+01   1   0   0 # Si
    141      1   3  1.720000000e+00 -6.188425887e+00 -6.974175650e+00  1.987820127e+01   1   0   0 # Si
    142      1   2  1.430000000e+00 -8.307598242e+00 -9.763845910e+00  2.078900087e+01   1   0   0 # Ca
    143      1   1 -1.298717489e+00 -4.543036110e+00 -2.878939708e+00  9.353911892e+00   1   0   0 # O
    144      1   2  1.430000000e+00 -2.770371178e+00 -1.394835130e+00 -0.000000000e+00   1   0   0 # Ca
    145      1   1 -1.298717489e+00 -4.648542439e+00 -5.495650412e+00  4.303528110e-01   1   0   0 # O
    146      1   5 -1.158717489e+00 -1.015797375e+01 -5.199945365e+00  4.804467890e+00   1   0   0 # Oh
    147      1   9 -1.298717489e+00 -2.768613532e+00 -4.184505390e+00  7.923956520e+00   1   0   0 # Ob
    148      1   1 -1.298717489e+00 -4.653886110e+00 -2.878939708e+00  4.303528110e-01   1   0   0 # O
    149      1   7  1.700000000e+00 -4.631793447e+00 -2.756194217e+00  4.508458020e+00   1   0   0 # Cw
    150      1   7  1.700000000e+00 -8.326793446e+00 -2.756194217e+00  4.508458020e+00   1   0   0 # Cw
    151      1   2  1.430000000e+00 -2.770371178e+00 -1.394835130e+00  9.404005870e+00   1   0   0 # Ca
    152      1   5 -1.158717489e+00 -6.463086239e+00 -5.021406468e+00  4.850007870e+00   1   0   0 # Oh
    153      1   1 -1.298717489e+00 -4.537692438e+00 -5.495650412e+00  9.353911892e+00   1   0   0 # O
    154      1   1 -1.298717489e+00 -8.230646110e+00 -2.878939709e+00  4.303528110e-01   1   0   0 # O
    155      1   3  1.720000000e+00 -4.889543532e+00 -4.184505390e+00  1.275119440e+00   1   0   0 # Si
    156      1   2  1.430000000e+00 -6.465371177e+00 -1.394835130e+00 -0.000000000e+00   1   0   0 # Ca
    157      1   3  1.720000000e+00 -4.298343532e+00 -4.184505390e+00  8.470436280e+00   1   0   0 # Si
    158      1   5 -1.158717489e+00 -5.244263532e+00 -4.184505390e+00  7.058696900e+00   1   0   0 # Oh
    159      1   1 -1.298717489e+00 -8.348886110e+00 -2.878939708e+00  9.353911892e+00   1   0   0 # O
    160      1   9 -1.298717489e+00 -6.463613532e+00 -4.184505390e+00  1.753289230e+00   1   0   0 # Ob
    161      1   1 -1.298717489e+00 -8.350932439e+00 -5.495650412e+00  9.353911892e+00   1   0   0 # O
    162      1   1 -1.298717489e+00 -8.232692439e+00 -5.495650413e+00  4.303528110e-01   1   0   0 # O
    163      1   3  1.720000000e+00 -7.993343532e+00 -4.184505390e+00  1.275119440e+00   1   0   0 # Si
    164      1   3  1.720000000e+00 -8.584543533e+00 -4.184505390e+00  8.493206270e+00   1   0   0 # Si
    165      1   2  1.430000000e+00 -6.465371177e+00 -1.394835130e+00  9.404005870e+00   1   0   0 # Ca
    166      1   1 -1.298717489e+00 -6.538448600e+00 -2.700400812e+00  2.073890689e+01   1   0   0 # O
    167      1   2  1.430000000e+00 -8.311113532e+00 -4.184505390e+00  1.138499500e+01   1   0   0 # Ca
    168      1   1 -1.298717489e+00 -2.119888111e+01 -2.240105219e+01  1.181534781e+01   2   0   0 # O
    169      1   5 -1.158717489e+00 -1.568944980e+01 -2.269675724e+01  1.618946289e+01   2   0   0 # Oh
    170      1   9 -1.298717489e+00 -9.228711770e-01 -1.394835130e+00  1.930895152e+01   1   0   0 # Ob
    171      1   1 -1.298717489e+00 -6.427598600e+00 -2.700400812e+00  1.181534781e+01   1   0   0 # O
    172      1   7  1.700000000e+00 -6.449691263e+00 -2.823146303e+00  1.589345302e+01   1   0   0 # Cw
    173      1   7  1.700000000e+00 -2.754691263e+00 -2.823146304e+00  1.589345302e+01   1   0   0 # Cw
    174      1   5 -1.158717489e+00 -1.938160901e+01 -2.134097749e+01  1.835261194e+01   2   0   0 # Oh
    175      1   2  1.430000000e+00 -8.311113532e+00 -4.184505390e+00  2.078900087e+01   1   0   0 # Ca
    176      1   1 -1.298717489e+00 -2.130973111e+01 -2.240105219e+01  2.073890689e+01   2   0   0 # O
    177      1   9 -1.298717489e+00 -7.056571177e+00 -1.394835130e+00  1.411739380e+01   1   0   0 # Ob
    178      1   3  1.720000000e+00 -6.191941177e+00 -1.394835130e+00  1.266011444e+01   1   0   0 # Si
    179      1   2  1.430000000e+00 -4.616113532e+00 -4.184505390e+00  1.138499500e+01   1   0   0 # Ca
    180      1   3  1.720000000e+00 -6.783141178e+00 -1.394835130e+00  1.985543128e+01   1   0   0 # Si
    181      1   5 -1.158717489e+00 -5.837221177e+00 -1.394835130e+00  1.844369190e+01   1   0   0 # Oh
    182      1   1 -1.298717489e+00 -2.732598599e+00 -2.700400812e+00  2.073890689e+01   1   0   0 # O
    183      1   5 -1.158717489e+00 -4.617871177e+00 -1.394835130e+00  1.313828423e+01   1   0   0 # Oh
    184      1   1 -1.298717489e+00 -1.749649111e+01 -2.240105219e+01  2.073890689e+01   2   0   0 # O
    185      1   3  1.720000000e+00 -2.496941177e+00 -1.394835130e+00  1.987820127e+01   1   0   0 # Si
    186      1   2  1.430000000e+00 -4.616113532e+00 -4.184505390e+00  2.078900087e+01   1   0   0 # Ca
    187      1   1 -1.298717489e+00 -2.300749024e+01 -1.961696127e+01  9.353911892e+00   1   0   0 # O
    188      1   2  1.430000000e+00 -2.123482531e+01 -1.813285669e+01 -0.000000000e+00   1   0   0 # Ca
    189      1   5 -1.158717489e+00 -1.385561725e+01 -1.004281294e+00  2.573008870e+00   0   0   0 # Oh
    190      1   1 -1.298717489e+00 -2.311299657e+01 -2.223367197e+01  4.303528110e-01   1   0   0 # O
    191      1   5 -1.158717489e+00 -2.862242788e+01 -2.193796693e+01  4.804467890e+00   1   0   0 # Oh
    192      1   9 -1.298717489e+00 -2.123306766e+01 -2.092252695e+01  7.923956520e+00   1   0   0 # Ob
    193      1   1 -1.298717489e+00 -2.311834024e+01 -1.961696127e+01  4.303528110e-01   1   0   0 # O
    194      1   7  1.700000000e+00 -2.309624757e+01 -1.949421578e+01  4.508458020e+00   1   0   0 # Cw
    195      1   7  1.700000000e+00 -2.679124757e+01 -1.949421578e+01  4.508458020e+00   1   0   0 # Cw
    196      1   2  1.430000000e+00 -2.123482531e+01 -1.813285669e+01  9.404005870e+00   1   0   0 # Ca
    197      1   5 -1.158717489e+00 -2.492754037e+01 -2.175942803e+01  4.850007870e+00   1   0   0 # Oh
    198      1   9 -1.298717489e+00 -2.736676766e+01 -2.092252695e+01  2.732398800e+00   1   0   0 # Ob
    199      1   1 -1.298717489e+00 -2.300214657e+01 -2.223367197e+01  9.353911892e+00   1   0   0 # O
    200      1   5 -1.158717489e+00 -2.248936766e+01 -2.092252695e+01  2.732398800e+00   1   0   0 # Oh
    201      1   1 -1.298717489e+00 -2.669510024e+01 -1.961696127e+01  4.303528110e-01   1   0   0 # O
    202      1   3  1.720000000e+00 -2.335399766e+01 -2.092252695e+01  1.275119440e+00   1   0   0 # Si
    203      1   2  1.430000000e+00 -2.492982531e+01 -1.813285669e+01 -0.000000000e+00   1   0   0 # Ca
    204      1   3  1.720000000e+00 -2.276279766e+01 -2.092252695e+01  8.470436280e+00   1   0   0 # Si
    205      1   5 -1.158717489e+00 -2.370871766e+01 -2.092252695e+01  7.058696900e+00   1   0   0 # Oh
    206      1   9 -1.298717489e+00 -2.492806766e+01 -2.092252695e+01  1.753289230e+00   1   0   0 # Ob
    207      1   1 -1.298717489e+00 -2.669714657e+01 -2.223367197e+01  4.303528110e-01   1   0   0 # O
    208      1   3  1.720000000e+00 -2.645779766e+01 -2.092252695e+01  1.275119440e+00   1   0   0 # Si
    209      1   3  1.720000000e+00 -2.862242788e+01 -2.193796693e+01  3.210568590e+00   1   0   0 # Si
    210      1   2  1.430000000e+00 -2.492982531e+01 -1.813285669e+01  9.404005870e+00   1   0   0 # Ca
    211      1   1 -1.298717489e+00 -2.500290273e+01 -1.943842237e+01  2.073890689e+01   1   0   0 # O
    212      1   2  1.430000000e+00 -2.677556766e+01 -2.092252695e+01  1.138499500e+01   1   0   0 # Ca
    213      1   5 -1.158717489e+00 -1.938883688e+01 -1.573374027e+01  1.395800387e+01   1   0   0 # Oh
    214      1   5 -1.158717489e+00 -1.938796509e+01 -1.711741672e+01  1.618946289e+01   1   0   0 # Oh
    215      1   9 -1.298717489e+00 -1.938732531e+01 -1.813285669e+01  1.930895152e+01   1   0   0 # Ob
    216      1   7  1.700000000e+00 -2.491414539e+01 -1.956116786e+01  1.589345302e+01   1   0   0 # Cw
    217      1   7  1.700000000e+00 -2.121914539e+01 -1.956116786e+01  1.589345302e+01   1   0   0 # Cw
    218      1   5 -1.158717489e+00 -2.308012430e+01 -1.576163697e+01  1.835261194e+01   1   0   0 # Oh
    219      1   2  1.430000000e+00 -2.677556766e+01 -2.092252695e+01  2.078900087e+01   1   0   0 # Ca
    220      1   5 -1.158717489e+00 -2.064362531e+01 -1.813285669e+01  1.411739380e+01   1   0   0 # Oh
    221      1   1 -1.298717489e+00 -2.500824640e+01 -1.682171167e+01  2.073890689e+01   1   0   0 # O
    222      1   5 -1.158717489e+00 -2.552102530e+01 -1.813285669e+01  1.411739380e+01   1   0   0 # Oh
    223      1   5 -1.158717489e+00 -2.201077530e+01 -1.813285669e+01  1.844369190e+01   1   0   0 # Oh
    224      1   2  1.430000000e+00 -2.308056766e+01 -2.092252695e+01  1.138499500e+01   1   0   0 # Ca
    225      1   3  1.720000000e+00 -2.524759531e+01 -1.813285669e+01  1.985543128e+01   1   0   0 # Si
    226      1   1 -1.298717489e+00 -2.119705273e+01 -1.943842237e+01  2.073890689e+01   1   0   0 # O
    227      1   5 -1.158717489e+00 -2.308232531e+01 -1.813285669e+01  1.313828423e+01   1   0   0 # Oh
    228      1   1 -1.298717489e+00 -2.119500640e+01 -1.682171167e+01  2.073890689e+01   1   0   0 # O
    229      1   3  1.720000000e+00 -1.938796509e+01 -1.711741672e+01  1.459556359e+01   1   0   0 # Si
    230      1   3  1.720000000e+00 -2.096139531e+01 -1.813285669e+01  1.987820127e+01   1   0   0 # Si
    231      1   2  1.430000000e+00 -2.308056766e+01 -2.092252695e+01  2.078900087e+01   1   0   0 # Ca
    232      1   1 -1.298717489e+00 -1.931600553e+01 -1.403762075e+01  9.353911892e+00   1   0   0 # O
    233      1   2  1.430000000e+00 -1.754334060e+01 -1.255351617e+01 -0.000000000e+00   1   0   0 # Ca
    234      1   5 -1.158717489e+00 -2.493007138e+01 -1.774230285e+01  2.573008870e+00   1   0   0 # Oh
    235      1   1 -1.298717489e+00 -1.942151186e+01 -1.665433145e+01  4.303528110e-01   1   0   0 # O
    236      1   9 -1.298717489e+00 -1.754158295e+01 -1.534318643e+01  7.923956520e+00   1   0   0 # Ob
    237      1   1 -1.298717489e+00 -1.942685553e+01 -1.403762075e+01  4.303528110e-01   1   0   0 # O
    238      1   7  1.700000000e+00 -1.940476286e+01 -1.391487526e+01  4.508458020e+00   1   0   0 # Cw
    239      1   7  1.700000000e+00 -2.309976286e+01 -1.391487526e+01  4.508458020e+00   1   0   0 # Cw
    240      1   2  1.430000000e+00 -1.754334060e+01 -1.255351617e+01  9.404005870e+00   1   0   0 # Ca
    241      1   5 -1.158717489e+00 -2.123605566e+01 -1.618008751e+01  4.850007870e+00   1   0   0 # Oh
    242      1   5 -1.158717489e+00 -2.367528295e+01 -1.534318643e+01  2.732398800e+00   1   0   0 # Oh
    243      1   1 -1.298717489e+00 -1.931066186e+01 -1.665433145e+01  9.353911892e+00   1   0   0 # O
    244      1   5 -1.158717489e+00 -2.230813295e+01 -1.534318643e+01  7.058696900e+00   1   0   0 # Oh
    245      1   1 -1.298717489e+00 -2.300361553e+01 -1.403762075e+01  4.303528110e-01   1   0   0 # O
    246      1   3  1.720000000e+00 -1.966251295e+01 -1.534318643e+01  1.275119440e+00   1   0   0 # Si
    247      1   2  1.430000000e+00 -2.123834060e+01 -1.255351617e+01 -0.000000000e+00   1   0   0 # Ca
    248      1   3  1.720000000e+00 -1.907131295e+01 -1.534318643e+01  8.470436280e+00   1   0   0 # Si
    249      1   9 -1.298717489e+00 -2.123658295e+01 -1.534318643e+01  1.753289230e+00   1   0   0 # Ob
    250      1   1 -1.298717489e+00 -2.300566186e+01 -1.665433145e+01  4.303528110e-01   1   0   0 # O
    251      1   3  1.720000000e+00 -2.276631295e+01 -1.534318643e+01  1.275119440e+00   1   0   0 # Si
    252      1   2  1.430000000e+00 -2.123834060e+01 -1.255351617e+01  9.404005870e+00   1   0   0 # Ca
    253      1   1 -1.298717489e+00 -2.131141802e+01 -1.385908185e+01  2.073890689e+01   1   0   0 # O
    254      1   2  1.430000000e+00 -2.308408295e+01 -1.534318643e+01  1.138499500e+01   1   0   0 # Ca
    255      1   5 -1.158717489e+00 -1.569648038e+01 -1.153807620e+01  1.618946289e+01   1   0   0 # Oh
    256      1   9 -1.298717489e+00 -1.569584060e+01 -1.255351617e+01  1.930895152e+01   1   0   0 # Ob
    257      1   7  1.700000000e+00 -2.122266068e+01 -1.398182734e+01  1.589345302e+01   1   0   0 # Cw
    258      1   7  1.700000000e+00 -1.752766068e+01 -1.398182734e+01  1.589345302e+01   1   0   0 # Cw
    259      1   2  1.430000000e+00 -2.308408295e+01 -1.534318643e+01  2.078900087e+01   1   0   0 # Ca
    260      1   5 -1.158717489e+00 -1.939136789e+01 -1.171661509e+01  1.623500287e+01   1   0   0 # Oh
    261      1   1 -1.298717489e+00 -2.131676169e+01 -1.124237115e+01  2.073890689e+01   1   0   0 # O
    262      1   5 -1.158717489e+00 -1.831929060e+01 -1.255351617e+01  1.844369190e+01   1   0   0 # Oh
    263      1   1 -1.298717489e+00 -1.762380802e+01 -1.385908185e+01  1.181534781e+01   1   0   0 # O
    264      1   2  1.430000000e+00 -1.938908295e+01 -1.534318643e+01  1.138499500e+01   1   0   0 # Ca
    265      1   3  1.720000000e+00 -2.155611060e+01 -1.255351617e+01  1.985543128e+01   1   0   0 # Si
    266      1   1 -1.298717489e+00 -1.750556802e+01 -1.385908185e+01  2.073890689e+01   1   0   0 # O
    267      1   5 -1.158717489e+00 -1.939084060e+01 -1.255351617e+01  1.313828423e+01   1   0   0 # Oh
    268      1   1 -1.298717489e+00 -1.750352169e+01 -1.124237115e+01  2.073890689e+01   1   0   0 # O
    269      1   1 -1.298717489e+00 -1.762176169e+01 -1.124237115e+01  1.181534781e+01   1   0   0 # O
    270      1   3  1.720000000e+00 -1.786111060e+01 -1.255351617e+01  1.266011444e+01   1   0   0 # Si
    271      1   3  1.720000000e+00 -1.726991060e+01 -1.255351617e+01  1.987820127e+01   1   0   0 # Si
    272      1   2  1.430000000e+00 -1.938908295e+01 -1.534318643e+01  2.078900087e+01   1   0   0 # Ca
    273      1   1 -1.298717489e+00 -1.562452082e+01 -8.458280229e+00  9.353911892e+00   1   0   0 # O
    274      1   2  1.430000000e+00 -1.385185589e+01 -6.974175651e+00 -0.000000000e+00   1   0   0 # Ca
    275      1   5 -1.158717489e+00 -2.123858667e+01 -1.216296233e+01  2.573008870e+00   1   0   0 # Oh
    276      1   1 -1.298717489e+00 -1.573002715e+01 -1.107499093e+01  4.303528110e-01   1   0   0 # O
    277      1   9 -1.298717489e+00 -1.385009824e+01 -9.763845910e+00  7.923956520e+00   1   0   0 # Ob