LAMMPS data file generated by STL2LMP v6.0 / 14 Aug 2019 on Wed Feb 12 15:25:00 2020

   7280 atoms
   2643 bonds
   1109 angles

   8 atom types
   4 bond types
   1 angle types

 -4.112318398e+01  1.060681602e+01 xlo xhi
 -2.306134546e+01 -7.439454570e-01 ylo yhi
 -3.415500000e+01  3.415500000e+01 zlo zhi
  1.476600000e+01  0.000000000e+00  0.000000000e+00 xy xz yz

Masses

   1  15.999000 # O
   2  40.078000 # Ca
   3  28.085000 # Si
   4   1.007940 # H
   5  15.999000 # Oh
   6  15.999000 # Ow
   7  40.078000 # Cw
   8   1.007940 # Hw

Pair Coeffs

   1 0.0000000000e+00 0.0000000000e+00 # O
   2 0.0000000000e+00 0.0000000000e+00 # Ca
   3 0.0000000000e+00 0.0000000000e+00 # Si
   4 0.0000000000e+00 0.0000000000e+00 # H
   5 0.0000000000e+00 0.0000000000e+00 # Oh
   6 0.0000000000e+00 0.0000000000e+00 # Ow
   7 0.0000000000e+00 0.0000000000e+00 # Cw
   8 0.0000000000e+00 0.0000000000e+00 # Hw

Bond Coeffs

   1 0.0000e+00 0.0000e+00 # Ow-Hw
   2 0.0000e+00 0.0000e+00 # Oh-H
   3 0.0000e+00 0.0000e+00 # O-Si
   4 0.0000e+00 0.0000e+00 # Oh-Si

Angle Coeffs

   1 0.0000e+00 0.0000e+00 # Hw-Ow-Hw

Atoms # full

      1      1   1 -1.290119771e+00 -1.561749024e+01 -1.961696127e+01  9.353911892e+00   1   0   0 # O
      2      1   2  1.430000000e+00 -1.384482531e+01 -1.813285669e+01 -0.000000000e+00   1   0   0 # Ca
      3      1   1 -1.290119771e+00 -1.572299657e+01 -2.223367197e+01  4.303528110e-01   1   0   0 # O
      4      1   5 -1.150119771e+00 -2.123242788e+01 -2.193796693e+01  4.804467890e+00   1   0   0 # Oh
      5      1   1 -1.290119771e+00 -1.384306766e+01 -2.092252695e+01  7.923956520e+00   1   0   0 # O
      6      1   1 -1.290119771e+00 -1.572834024e+01 -1.961696127e+01  4.303528110e-01   1   0   0 # O
      7      1   7  1.700000000e+00 -1.570624758e+01 -1.949421578e+01  4.508458020e+00   1   0   0 # Cw
      8      1   7  1.700000000e+00 -1.940124757e+01 -1.949421578e+01  4.508458020e+00   1   0   0 # Cw
      9      1   2  1.430000000e+00 -1.384482531e+01 -1.813285669e+01  9.404005870e+00   1   0   0 # Ca
     10      1   5 -1.150119771e+00 -1.753754037e+01 -2.175942803e+01  4.850007870e+00   1   0   0 # Oh
     11      1   5 -1.030015604e+00 -1.997676766e+01 -2.092252695e+01  2.732398800e+00   1   0   0 # Oh
     12      1   1 -1.290119771e+00 -1.561214657e+01 -2.223367197e+01  9.353911892e+00   1   0   0 # O
     13      1   5 -1.030015604e+00 -1.860961766e+01 -2.092252695e+01  7.058696900e+00   1   0   0 # Oh
     14      1   3  1.720000000e+00 -1.596399766e+01 -2.092252695e+01  1.275119440e+00   1   0   0 # Si
     15      1   2  1.430000000e+00 -1.753982531e+01 -1.813285669e+01 -0.000000000e+00   1   0   0 # Ca
     16      1   3  1.720000000e+00 -1.537279766e+01 -2.092252695e+01  8.470436280e+00   1   0   0 # Si
     17      1   1 -1.290119771e+00 -1.753806766e+01 -2.092252695e+01  1.753289230e+00   1   0   0 # O
     18      1   2  1.430000000e+00 -1.753982531e+01 -1.813285669e+01  9.404005870e+00   1   0   0 # Ca
     19      1   1 -1.290119771e+00 -1.761290273e+01 -1.943842237e+01  2.073890689e+01   1   0   0 # O
     20      1   2  1.430000000e+00 -1.938556766e+01 -2.092252695e+01  1.138499500e+01   1   0   0 # Ca
     21      1   1 -1.290119771e+00 -1.750739640e+01 -1.682171167e+01  1.181534781e+01   1   0   0 # O
     22      1   5 -1.150119771e+00 -1.199796509e+01 -1.711741672e+01  1.618946289e+01   1   0   0 # Oh
     23      1   1 -1.290119771e+00 -1.199732531e+01 -1.813285669e+01  1.930895152e+01   1   0   0 # O
     24      1   1 -1.290119771e+00 -1.750205273e+01 -1.943842237e+01  1.181534781e+01   1   0   0 # O
     25      1   7  1.700000000e+00 -1.752414539e+01 -1.956116786e+01  1.589345302e+01   1   0   0 # Cw
     26      1   7  1.700000000e+00 -1.382914539e+01 -1.956116786e+01  1.589345302e+01   1   0   0 # Cw
     27      1   5 -1.150119771e+00 -1.569012430e+01 -1.576163697e+01  1.835261194e+01   1   0   0 # Oh
     28      1   2  1.430000000e+00 -1.938556766e+01 -2.092252695e+01  2.078900087e+01   1   0   0 # Ca
     29      1   1 -1.290119771e+00 -1.325362531e+01 -1.813285669e+01  1.411739380e+01   1   0   0 # O
     30      1   1 -1.290119771e+00 -1.761824640e+01 -1.682171167e+01  2.073890689e+01   1   0   0 # O
     31      1   1 -1.290119771e+00 -1.813102531e+01 -1.813285669e+01  1.411739380e+01   1   0   0 # O
     32      1   5 -1.030015604e+00 -1.462077531e+01 -1.813285669e+01  1.844369190e+01   1   0   0 # Oh
     33      1   1 -1.290119771e+00 -1.392529273e+01 -1.943842237e+01  1.181534781e+01   1   0   0 # O
     34      1   3  1.720000000e+00 -1.726639530e+01 -1.813285669e+01  1.266011444e+01   1   0   0 # Si
     35      1   2  1.430000000e+00 -1.569056766e+01 -2.092252695e+01  1.138499500e+01   1   0   0 # Ca
     36      1   3  1.720000000e+00 -1.785759531e+01 -1.813285669e+01  1.985543128e+01   1   0   0 # Si
     37      1   1 -1.290119771e+00 -1.569232531e+01 -1.813285669e+01  1.313828423e+01   1   0   0 # O
     38      1   1 -1.290119771e+00 -1.392324640e+01 -1.682171167e+01  1.181534781e+01   1   0   0 # O
     39      1   3  1.720000000e+00 -1.416259530e+01 -1.813285669e+01  1.266011444e+01   1   0   0 # Si
     40      1   2  1.430000000e+00 -1.569056766e+01 -2.092252695e+01  2.078900087e+01   1   0   0 # Ca
     41      1   1 -1.290119771e+00 -1.192600553e+01 -1.403762075e+01  9.353911892e+00   1   0   0 # O
     42      1   2  1.430000000e+00 -1.015334060e+01 -1.255351617e+01 -0.000000000e+00   1   0   0 # Ca
     43      1   5 -1.150119771e+00 -1.754094317e+01 -1.635862640e+01  4.804467890e+00   1   0   0 # Oh
     44      1   1 -1.290119771e+00 -1.015158295e+01 -1.534318643e+01  7.923956520e+00   1   0   0 # O
     45      1   7  1.700000000e+00 -1.201476286e+01 -1.391487526e+01  4.508458020e+00   1   0   0 # Cw
     46      1   7  1.700000000e+00 -1.570976287e+01 -1.391487526e+01  4.508458020e+00   1   0   0 # Cw
     47      1   5 -1.150119771e+00 -1.384878395e+01 -1.771440615e+01  6.967616940e+00   1   0   0 # Oh
     48      1   2  1.430000000e+00 -1.015334060e+01 -1.255351617e+01  9.404005870e+00   1   0   0 # Ca
     49      1   1 -1.290119771e+00 -1.192066186e+01 -1.665433145e+01  9.353911892e+00   1   0   0 # O
     50      1   5 -1.030015604e+00 -1.140788295e+01 -1.534318643e+01  2.732398800e+00   1   0   0 # Oh
     51      1   1 -1.290119771e+00 -1.491813295e+01 -1.534318643e+01  7.058696900e+00   1   0   0 # O
     52      1   1 -1.290119771e+00 -1.561361553e+01 -1.403762075e+01  4.303528110e-01   1   0   0 # O
     53      1   2  1.430000000e+00 -1.384834060e+01 -1.255351617e+01 -0.000000000e+00   1   0   0 # Ca
     54      1   3  1.720000000e+00 -1.168131295e+01 -1.534318643e+01  8.470436280e+00   1   0   0 # Si
     55      1   1 -1.290119771e+00 -1.573185553e+01 -1.403762075e+01  9.353911892e+00   1   0   0 # O
     56      1   1 -1.290119771e+00 -1.384658295e+01 -1.534318643e+01  1.753289230e+00   1   0   0 # O
     57      1   1 -1.290119771e+00 -1.573390186e+01 -1.665433145e+01  9.353911892e+00   1   0   0 # O
     58      1   1 -1.290119771e+00 -1.561566186e+01 -1.665433145e+01  4.303528110e-01   1   0   0 # O
     59      1   3  1.720000000e+00 -1.537631295e+01 -1.534318643e+01  1.275119440e+00   1   0   0 # Si
     60      1   3  1.720000000e+00 -1.596751295e+01 -1.534318643e+01  8.493206270e+00   1   0   0 # Si
     61      1   2  1.430000000e+00 -1.384834060e+01 -1.255351617e+01  9.404005870e+00   1   0   0 # Ca
     62      1   2  1.430000000e+00 -1.569408295e+01 -1.534318643e+01  1.138499500e+01   1   0   0 # Ca
     63      1   5 -1.150119771e+00 -8.307352171e+00 -1.015439975e+01  1.395800387e+01   1   0   0 # Oh
     64      1   1 -1.290119771e+00 -8.305840596e+00 -1.255351617e+01  1.930895152e+01   1   0   0 # O
     65      1   7  1.700000000e+00 -1.383266068e+01 -1.398182734e+01  1.589345302e+01   1   0   0 # Cw
     66      1   7  1.700000000e+00 -1.013766068e+01 -1.398182734e+01  1.589345302e+01   1   0   0 # Cw
     67      1   2  1.430000000e+00 -1.569408295e+01 -1.534318643e+01  2.078900087e+01   1   0   0 # Ca
     68      1   5 -1.150119771e+00 -1.200136789e+01 -1.171661509e+01  1.623500287e+01   1   0   0 # Oh
     69      1   1 -1.290119771e+00 -9.562140596e+00 -1.255351617e+01  1.411739380e+01   1   0   0 # O
     70      1   5 -1.030015604e+00 -1.443954060e+01 -1.255351617e+01  1.411739380e+01   1   0   0 # Oh
     71      1   1 -1.290119771e+00 -1.023380802e+01 -1.385908185e+01  1.181534781e+01   1   0   0 # O
     72      1   2  1.430000000e+00 -1.199908295e+01 -1.534318643e+01  1.138499500e+01   1   0   0 # Ca
     73      1   5 -1.030015604e+00 -1.322019060e+01 -1.255351617e+01  1.844369190e+01   1   0   0 # Oh
     74      1   1 -1.290119771e+00 -1.011556802e+01 -1.385908185e+01  2.073890689e+01   1   0   0 # O
     75      1   1 -1.290119771e+00 -1.200084060e+01 -1.255351617e+01  1.313828423e+01   1   0   0 # O
     76      1   1 -1.290119771e+00 -1.011352169e+01 -1.124237115e+01  2.073890689e+01   1   0   0 # O
     77      1   1 -1.290119771e+00 -1.023176169e+01 -1.124237115e+01  1.181534781e+01   1   0   0 # O
     78      1   3  1.720000000e+00 -1.047111060e+01 -1.255351617e+01  1.266011444e+01   1   0   0 # Si
     79      1   3  1.720000000e+00 -9.879910596e+00 -1.255351617e+01  1.987820127e+01   1   0   0 # Si
     80      1   2  1.430000000e+00 -1.199908295e+01 -1.534318643e+01  2.078900087e+01   1   0   0 # Ca
     81      1   1 -1.290119771e+00 -8.234520820e+00 -8.458280228e+00  9.353911892e+00   1   0   0 # O
     82      1   2  1.430000000e+00 -6.461855887e+00 -6.974175650e+00 -0.000000000e+00   1   0   0 # Ca
     83      1   5 -1.150119771e+00 -1.384858667e+01 -1.216296233e+01  2.573008870e+00   1   0   0 # Oh
     84      1   1 -1.290119771e+00 -6.460098241e+00 -9.763845910e+00  7.923956520e+00   1   0   0 # O
     85      1   7  1.700000000e+00 -8.323278156e+00 -8.335534738e+00  4.508458020e+00   1   0   0 # Cw
     86      1   7  1.700000000e+00 -1.201827816e+01 -8.335534737e+00  4.508458020e+00   1   0   0 # Cw
     87      1   5 -1.150119771e+00 -1.015729924e+01 -1.213506563e+01  6.967616940e+00   1   0   0 # Oh
     88      1   2  1.430000000e+00 -6.461855887e+00 -6.974175650e+00  9.404005870e+00   1   0   0 # Ca
     89      1   1 -1.290119771e+00 -8.229177148e+00 -1.107499093e+01  9.353911892e+00   1   0   0 # O
     90      1   5 -1.030015604e+00 -1.122664824e+01 -9.763845910e+00  7.058696900e+00   1   0   0 # Oh
     91      1   1 -1.290119771e+00 -1.192213082e+01 -8.458280229e+00  4.303528110e-01   1   0   0 # O
     92      1   2  1.430000000e+00 -1.015685589e+01 -6.974175650e+00 -0.000000000e+00   1   0   0 # Ca
     93      1   3  1.720000000e+00 -7.989828241e+00 -9.763845910e+00  8.470436280e+00   1   0   0 # Si
     94      1   1 -1.290119771e+00 -1.015509824e+01 -9.763845910e+00  1.753289230e+00   1   0   0 # O
     95      1   1 -1.290119771e+00 -1.192417715e+01 -1.107499093e+01  4.303528110e-01   1   0   0 # O
     96      1   3  1.720000000e+00 -1.168482824e+01 -9.763845910e+00  1.275119440e+00   1   0   0 # Si
     97      1   2  1.430000000e+00 -1.015685589e+01 -6.974175650e+00  9.404005870e+00   1   0   0 # Ca
     98      1   1 -1.290119771e+00 -1.022993331e+01 -8.279741332e+00  2.073890689e+01   1   0   0 # O
     99      1   2  1.430000000e+00 -1.200259824e+01 -9.763845910e+00  1.138499500e+01   1   0   0 # Ca
    100      1   1 -1.290119771e+00 -1.012442698e+01 -5.663030628e+00  1.181534781e+01   1   0   0 # O
    101      1   5 -1.150119771e+00 -4.614995670e+00 -5.958735675e+00  1.618946289e+01   1   0   0 # Oh
    102      1   1 -1.290119771e+00 -4.614355887e+00 -6.974175650e+00  1.930895152e+01   1   0   0 # O
    103      1   1 -1.290119771e+00 -1.011908331e+01 -8.279741332e+00  1.181534781e+01   1   0   0 # O
    104      1   7  1.700000000e+00 -1.014117597e+01 -8.402486823e+00  1.589345302e+01   1   0   0 # Cw
    105      1   7  1.700000000e+00 -6.446175972e+00 -8.402486824e+00  1.589345302e+01   1   0   0 # Cw
    106      1   5 -1.150119771e+00 -8.307154885e+00 -4.602955929e+00  1.835261194e+01   1   0   0 # Oh
    107      1   2  1.430000000e+00 -1.200259824e+01 -9.763845910e+00  2.078900087e+01   1   0   0 # Ca
    108      1   5 -1.030015604e+00 -5.870655887e+00 -6.974175651e+00  1.411739380e+01   1   0   0 # Oh
    109      1   1 -1.290119771e+00 -1.023527698e+01 -5.663030629e+00  2.073890689e+01   1   0   0 # O
    110      1   1 -1.290119771e+00 -7.237805887e+00 -6.974175650e+00  1.844369190e+01   1   0   0 # O
    111      1   3  1.720000000e+00 -9.883425887e+00 -6.974175651e+00  1.266011444e+01   1   0   0 # Si
    112      1   2  1.430000000e+00 -8.307598242e+00 -9.763845910e+00  1.138499500e+01   1   0   0 # Ca
    113      1   3  1.720000000e+00 -1.047462589e+01 -6.974175650e+00  1.985543128e+01   1   0   0 # Si
    114      1   1 -1.290119771e+00 -6.424083308e+00 -8.279741332e+00  2.073890689e+01   1   0   0 # O
    115      1   1 -1.290119771e+00 -8.309355886e+00 -6.974175650e+00  1.313828423e+01   1   0   0 # O
    116      1   1 -1.290119771e+00 -6.422036980e+00 -5.663030628e+00  2.073890689e+01   1   0   0 # O
    117      1   3  1.720000000e+00 -6.188425887e+00 -6.974175650e+00  1.987820127e+01   1   0   0 # Si
    118      1   2  1.430000000e+00 -8.307598242e+00 -9.763845910e+00  2.078900087e+01   1   0   0 # Ca
    119      1   1 -1.290119771e+00 -4.543036110e+00 -2.878939708e+00  9.353911892e+00   1   0   0 # O
    120      1   2  1.430000000e+00 -2.770371178e+00 -1.394835130e+00 -0.000000000e+00   1   0   0 # Ca
    121      1   5 -1.150119771e+00 -1.015710196e+01 -6.583621814e+00  2.573008870e+00   1   0   0 # Oh
    122      1   1 -1.290119771e+00 -2.768613532e+00 -4.184505390e+00  7.923956520e+00   1   0   0 # O
    123      1   7  1.700000000e+00 -4.631793447e+00 -2.756194217e+00  4.508458020e+00   1   0   0 # Cw
    124      1   7  1.700000000e+00 -8.326793446e+00 -2.756194217e+00  4.508458020e+00   1   0   0 # Cw
    125      1   2  1.430000000e+00 -2.770371178e+00 -1.394835130e+00  9.404005870e+00   1   0   0 # Ca
    126      1   5 -1.150119771e+00 -6.463086239e+00 -5.021406468e+00  4.850007870e+00   1   0   0 # Oh
    127      1   1 -1.290119771e+00 -4.537692438e+00 -5.495650412e+00  9.353911892e+00   1   0   0 # O
    128      1   1 -1.290119771e+00 -7.535163532e+00 -4.184505390e+00  7.058696900e+00   1   0   0 # O
    129      1   1 -1.290119771e+00 -8.230646110e+00 -2.878939709e+00  4.303528110e-01   1   0   0 # O
    130      1   2  1.430000000e+00 -6.465371177e+00 -1.394835130e+00 -0.000000000e+00   1   0   0 # Ca
    131      1   3  1.720000000e+00 -4.298343532e+00 -4.184505390e+00  8.470436280e+00   1   0   0 # Si
    132      1   1 -1.290119771e+00 -8.348886110e+00 -2.878939708e+00  9.353911892e+00   1   0   0 # O
    133      1   1 -1.290119771e+00 -6.463613532e+00 -4.184505390e+00  1.753289230e+00   1   0   0 # O
    134      1   1 -1.290119771e+00 -8.350932439e+00 -5.495650412e+00  9.353911892e+00   1   0   0 # O
    135      1   1 -1.290119771e+00 -8.232692439e+00 -5.495650413e+00  4.303528110e-01   1   0   0 # O
    136      1   3  1.720000000e+00 -7.993343532e+00 -4.184505390e+00  1.275119440e+00   1   0   0 # Si
    137      1   3  1.720000000e+00 -8.584543533e+00 -4.184505390e+00  8.493206270e+00   1   0   0 # Si
    138      1   2  1.430000000e+00 -6.465371177e+00 -1.394835130e+00  9.404005870e+00   1   0   0 # Ca
    139      1   1 -1.290119771e+00 -6.538448600e+00 -2.700400812e+00  2.073890689e+01   1   0   0 # O
    140      1   2  1.430000000e+00 -8.311113532e+00 -4.184505390e+00  1.138499500e+01   1   0   0 # Ca
    141      1   5 -1.150119771e+00 -1.569032159e+01 -2.131308079e+01  1.395800387e+01   2   0   0 # Oh
    142      1   1 -1.290119771e+00 -2.119888111e+01 -2.240105219e+01  1.181534781e+01   2   0   0 # O
    143      1   1 -1.290119771e+00 -9.228711770e-01 -1.394835130e+00  1.930895152e+01   1   0   0 # O
    144      1   1 -1.290119771e+00 -6.427598600e+00 -2.700400812e+00  1.181534781e+01   1   0   0 # O
    145      1   7  1.700000000e+00 -6.449691263e+00 -2.823146303e+00  1.589345302e+01   1   0   0 # Cw
    146      1   7  1.700000000e+00 -2.754691263e+00 -2.823146304e+00  1.589345302e+01   1   0   0 # Cw
    147      1   5 -1.150119771e+00 -1.938160901e+01 -2.134097749e+01  1.835261194e+01   2   0   0 # Oh
    148      1   2  1.430000000e+00 -8.311113532e+00 -4.184505390e+00  2.078900087e+01   1   0   0 # Ca
    149      1   1 -1.290119771e+00 -2.179171177e+00 -1.394835131e+00  1.411739380e+01   1   0   0 # O
    150      1   1 -1.290119771e+00 -2.130973111e+01 -2.240105219e+01  2.073890689e+01   2   0   0 # O
    151      1   1 -1.290119771e+00 -2.850838600e+00 -2.700400812e+00  1.181534781e+01   1   0   0 # O
    152      1   3  1.720000000e+00 -6.191941177e+00 -1.394835130e+00  1.266011444e+01   1   0   0 # Si
    153      1   2  1.430000000e+00 -4.616113532e+00 -4.184505390e+00  1.138499500e+01   1   0   0 # Ca
    154      1   3  1.720000000e+00 -6.783141178e+00 -1.394835130e+00  1.985543128e+01   1   0   0 # Si
    155      1   1 -1.290119771e+00 -5.837221177e+00 -1.394835130e+00  1.844369190e+01   1   0   0 # O
    156      1   1 -1.290119771e+00 -2.732598599e+00 -2.700400812e+00  2.073890689e+01   1   0   0 # O
    157      1   1 -1.290119771e+00 -4.617871177e+00 -1.394835130e+00  1.313828423e+01   1   0   0 # O
    158      1   1 -1.290119771e+00 -1.749649111e+01 -2.240105219e+01  2.073890689e+01   2   0   0 # O
    159      1   1 -1.290119771e+00 -1.761473111e+01 -2.240105219e+01  1.181534781e+01   2   0   0 # O
    160      1   3  1.720000000e+00 -3.088141177e+00 -1.394835130e+00  1.266011444e+01   1   0   0 # Si
    161      1   3  1.720000000e+00 -2.496941177e+00 -1.394835130e+00  1.987820127e+01   1   0   0 # Si
    162      1   2  1.430000000e+00 -4.616113532e+00 -4.184505390e+00  2.078900087e+01   1   0   0 # Ca
    163      1   2  1.430000000e+00 -2.123482531e+01 -1.813285669e+01 -0.000000000e+00   1   0   0 # Ca
    164      1   5 -1.150119771e+00 -1.385561725e+01 -1.004281294e+00  2.573008870e+00   0   0   0 # Oh
    165      1   1 -1.290119771e+00 -2.311299657e+01 -2.223367197e+01  4.303528110e-01   1   0   0 # O
    166      1   5 -1.030015604e+00 -2.123306766e+01 -2.092252695e+01  7.923956520e+00   1   0   0 # Oh
    167      1   1 -1.290119771e+00 -2.311834024e+01 -1.961696127e+01  4.303528110e-01   1   0   0 # O
    168      1   7  1.700000000e+00 -2.309624757e+01 -1.949421578e+01  4.508458020e+00   1   0   0 # Cw
    169      1   7  1.700000000e+00 -2.679124757e+01 -1.949421578e+01  4.508458020e+00   1   0   0 # Cw
    170      1   5 -1.150119771e+00 -1.016432982e+01 -9.763845910e-01  6.967616940e+00   0   0   0 # Oh
    171      1   2  1.430000000e+00 -2.123482531e+01 -1.813285669e+01  9.404005870e+00   1   0   0 # Ca
    172      1   1 -1.290119771e+00 -2.736676766e+01 -2.092252695e+01  2.732398800e+00   1   0   0 # O
    173      1   5 -1.030015604e+00 -2.599961766e+01 -2.092252695e+01  7.058696900e+00   1   0   0 # Oh
    174      1   1 -1.290119771e+00 -2.669510024e+01 -1.961696127e+01  4.303528110e-01   1   0   0 # O
    175      1   3  1.720000000e+00 -2.335399766e+01 -2.092252695e+01  1.275119440e+00   1   0   0 # Si
    176      1   2  1.430000000e+00 -2.492982531e+01 -1.813285669e+01 -0.000000000e+00   1   0   0 # Ca
    177      1   1 -1.290119771e+00 -2.492806766e+01 -2.092252695e+01  1.753289230e+00   1   0   0 # O
    178      1   1 -1.290119771e+00 -2.669714657e+01 -2.223367197e+01  4.303528110e-01   1   0   0 # O
    179      1   3  1.720000000e+00 -2.645779766e+01 -2.092252695e+01  1.275119440e+00   1   0   0 # Si
    180      1   2  1.430000000e+00 -2.492982531e+01 -1.813285669e+01  9.404005870e+00   1   0   0 # Ca
    181      1   1 -1.290119771e+00 -2.500290273e+01 -1.943842237e+01  2.073890689e+01   1   0   0 # O
    182      1   2  1.430000000e+00 -2.677556766e+01 -2.092252695e+01  1.138499500e+01   1   0   0 # Ca
    183      1   1 -1.290119771e+00 -2.489739640e+01 -1.682171167e+01  1.181534781e+01   1   0   0 # O
    184      1   5 -1.150119771e+00 -1.938796509e+01 -1.711741672e+01  1.618946289e+01   1   0   0 # Oh
    185      1   1 -1.290119771e+00 -1.938732531e+01 -1.813285669e+01  1.930895152e+01   1   0   0 # O
    186      1   1 -1.290119771e+00 -2.489205273e+01 -1.943842237e+01  1.181534781e+01   1   0   0 # O
    187      1   7  1.700000000e+00 -2.491414539e+01 -1.956116786e+01  1.589345302e+01   1   0   0 # Cw
    188      1   7  1.700000000e+00 -2.121914539e+01 -1.956116786e+01  1.589345302e+01   1   0   0 # Cw
    189      1   5 -1.150119771e+00 -2.308012430e+01 -1.576163697e+01  1.835261194e+01   1   0   0 # Oh
    190      1   2  1.430000000e+00 -2.677556766e+01 -2.092252695e+01  2.078900087e+01   1   0   0 # Ca
    191      1   1 -1.290119771e+00 -2.500824640e+01 -1.682171167e+01  2.073890689e+01   1   0   0 # O
    192      1   1 -1.290119771e+00 -2.552102530e+01 -1.813285669e+01  1.411739380e+01   1   0   0 # O
    193      1   3  1.720000000e+00 -2.465639531e+01 -1.813285669e+01  1.266011444e+01   1   0   0 # Si
    194      1   2  1.430000000e+00 -2.308056766e+01 -2.092252695e+01  1.138499500e+01   1   0   0 # Ca
    195      1   3  1.720000000e+00 -2.524759531e+01 -1.813285669e+01  1.985543128e+01   1   0   0 # Si
    196      1   1 -1.290119771e+00 -2.430167530e+01 -1.813285669e+01  1.844369190e+01   1   0   0 # O
    197      1   1 -1.290119771e+00 -2.308232531e+01 -1.813285669e+01  1.313828423e+01   1   0   0 # O
    198      1   2  1.430000000e+00 -2.308056766e+01 -2.092252695e+01  2.078900087e+01   1   0   0 # Ca
    199      1   1 -1.290119771e+00 -1.931600553e+01 -1.403762075e+01  9.353911892e+00   1   0   0 # O
    200      1   2  1.430000000e+00 -1.754334060e+01 -1.255351617e+01 -0.000000000e+00   1   0   0 # Ca
    201      1   5 -1.150119771e+00 -2.493007138e+01 -1.774230285e+01  2.573008870e+00   1   0   0 # Oh
    202      1   1 -1.290119771e+00 -1.942151186e+01 -1.665433145e+01  4.303528110e-01   1   0   0 # O
    203      1   1 -1.290119771e+00 -1.754158295e+01 -1.534318643e+01  7.923956520e+00   1   0   0 # O
    204      1   1 -1.290119771e+00 -1.942685553e+01 -1.403762075e+01  4.303528110e-01   1   0   0 # O
    205      1   7  1.700000000e+00 -1.940476286e+01 -1.391487526e+01  4.508458020e+00   1   0   0 # Cw
    206      1   7  1.700000000e+00 -2.309976286e+01 -1.391487526e+01  4.508458020e+00   1   0   0 # Cw
    207      1   5 -1.150119771e+00 -2.123878395e+01 -1.771440615e+01  6.967616940e+00   1   0   0 # Oh
    208      1   2  1.430000000e+00 -1.754334060e+01 -1.255351617e+01  9.404005870e+00   1   0   0 # Ca
    209      1   5 -1.150119771e+00 -2.123605566e+01 -1.618008751e+01  4.850007870e+00   1   0   0 # Oh
    210      1   1 -1.290119771e+00 -1.931066186e+01 -1.665433145e+01  9.353911892e+00   1   0   0 # O
    211      1   1 -1.290119771e+00 -1.879788295e+01 -1.534318643e+01  2.732398800e+00   1   0   0 # O
    212      1   1 -1.290119771e+00 -2.230813295e+01 -1.534318643e+01  7.058696900e+00   1   0   0 # O
    213      1   3  1.720000000e+00 -1.966251295e+01 -1.534318643e+01  1.275119440e+00   1   0   0 # Si
    214      1   2  1.430000000e+00 -2.123834060e+01 -1.255351617e+01 -0.000000000e+00   1   0   0 # Ca
    215      1   3  1.720000000e+00 -2.123599941e+01 -1.626935696e+01  6.421137180e+00   1   0   0 # Si
    216      1   3  1.720000000e+00 -1.907131295e+01 -1.534318643e+01  8.470436280e+00   1   0   0 # Si
    217      1   1 -1.290119771e+00 -2.001723295e+01 -1.534318643e+01  7.058696900e+00   1   0   0 # O
    218      1   1 -1.290119771e+00 -2.312185553e+01 -1.403762075e+01  9.353911892e+00   1   0   0 # O
    219      1   1 -1.290119771e+00 -2.123658295e+01 -1.534318643e+01  1.753289230e+00   1   0   0 # O
    220      1   1 -1.290119771e+00 -2.312390186e+01 -1.665433145e+01  9.353911892e+00   1   0   0 # O
    221      1   3  1.720000000e+00 -2.335751295e+01 -1.534318643e+01  8.493206270e+00   1   0   0 # Si
    222      1   2  1.430000000e+00 -2.123834060e+01 -1.255351617e+01  9.404005870e+00   1   0   0 # Ca
    223      1   1 -1.290119771e+00 -2.131141802e+01 -1.385908185e+01  2.073890689e+01   1   0   0 # O
    224      1   2  1.430000000e+00 -2.308408295e+01 -1.534318643e+01  1.138499500e+01   1   0   0 # Ca
    225      1   5 -1.150119771e+00 -1.569735217e+01 -1.015439975e+01  1.395800387e+01   1   0   0 # Oh
    226      1   1 -1.290119771e+00 -2.120591169e+01 -1.124237115e+01  1.181534781e+01   1   0   0 # O
    227      1   5 -1.030015604e+00 -1.569584060e+01 -1.255351617e+01  1.930895152e+01   1   0   0 # Oh
    228      1   1 -1.290119771e+00 -2.120056802e+01 -1.385908185e+01  1.181534781e+01   1   0   0 # O
    229      1   7  1.700000000e+00 -2.122266068e+01 -1.398182734e+01  1.589345302e+01   1   0   0 # Cw
    230      1   7  1.700000000e+00 -1.752766068e+01 -1.398182734e+01  1.589345302e+01   1   0   0 # Cw
    231      1   5 -1.150119771e+00 -1.938863960e+01 -1.018229645e+01  1.835261194e+01   1   0   0 # Oh
    232      1   2  1.430000000e+00 -2.308408295e+01 -1.534318643e+01  2.078900087e+01   1   0   0 # Ca
    233      1   1 -1.290119771e+00 -2.131676169e+01 -1.124237115e+01  2.073890689e+01   1   0   0 # O
    234      1   3  1.720000000e+00 -2.096491060e+01 -1.255351617e+01  1.266011444e+01   1   0   0 # Si
    235      1   2  1.430000000e+00 -1.938908295e+01 -1.534318643e+01  1.138499500e+01   1   0   0 # Ca
    236      1   3  1.720000000e+00 -2.155611060e+01 -1.255351617e+01  1.985543128e+01   1   0   0 # Si
    237      1   1 -1.290119771e+00 -2.061019060e+01 -1.255351617e+01  1.844369190e+01   1   0   0 # O
    238      1   1 -1.290119771e+00 -1.939084060e+01 -1.255351617e+01  1.313828423e+01   1   0   0 # O
    239      1   2  1.430000000e+00 -1.938908295e+01 -1.534318643e+01  2.078900087e+01   1   0   0 # Ca
    240      1   2  1.430000000e+00 -1.385185589e+01 -6.974175651e+00 -0.000000000e+00   1   0   0 # Ca
    241      1   1 -1.290119771e+00 -1.573002715e+01 -1.107499093e+01  4.303528110e-01   1   0   0 # O
    242      1   5 -1.150119771e+00 -2.123945846e+01 -1.077928589e+01  4.804467890e+00   1   0   0 # Oh
    243      1   5 -1.030015604e+00 -1.385009824e+01 -9.763845910e+00  7.923956520e+00   1   0   0 # Oh
    244      1   1 -1.290119771e+00 -1.573537082e+01 -8.458280229e+00  4.303528110e-01   1   0   0 # O
    245      1   7  1.700000000e+00 -1.571327816e+01 -8.335534737e+00  4.508458020e+00   1   0   0 # Cw
    246      1   7  1.700000000e+00 -1.940827816e+01 -8.335534737e+00  4.508458020e+00   1   0   0 # Cw
    247      1   5 -1.150119771e+00 -1.754729924e+01 -1.213506563e+01  6.967616940e+00   1   0   0 # Oh
    248      1   2  1.430000000e+00 -1.385185589e+01 -6.974175651e+00  9.404005870e+00   1   0   0 # Ca
    249      1   5 -1.030015604e+00 -1.998379824e+01 -9.763845910e+00  2.732398800e+00   1   0   0 # Oh
    250      1   1 -1.290119771e+00 -1.510639824e+01 -9.763845910e+00  2.732398800e+00   1   0   0 # O
    251      1   3  1.720000000e+00 -1.597102824e+01 -9.763845910e+00  1.275119440e+00   1   0   0 # Si
    252      1   2  1.430000000e+00 -1.754685589e+01 -6.974175650e+00 -0.000000000e+00   1   0   0 # Ca
    253      1   5 -1.030015604e+00 -1.632574824e+01 -9.763845910e+00  7.058696900e+00   1   0   0 # Oh
    254      1   1 -1.290119771e+00 -1.754509824e+01 -9.763845910e+00  1.753289230e+00   1   0   0 # O
    255      1   2  1.430000000e+00 -1.754685589e+01 -6.974175650e+00  9.404005870e+00   1   0   0 # Ca
    256      1   1 -1.290119771e+00 -1.761993331e+01 -8.279741331e+00  2.073890689e+01   1   0   0 # O
    257      1   2  1.430000000e+00 -1.939259824e+01 -9.763845910e+00  1.138499500e+01   1   0   0 # Ca
    258      1   1 -1.290119771e+00 -1.751442698e+01 -5.663030628e+00  1.181534781e+01   1   0   0 # O
    259      1   5 -1.150119771e+00 -1.200499567e+01 -5.958735676e+00  1.618946289e+01   1   0   0 # Oh
    260      1   1 -1.290119771e+00 -1.200435589e+01 -6.974175650e+00  1.930895152e+01   1   0   0 # O
    261      1   1 -1.290119771e+00 -1.750908331e+01 -8.279741332e+00  1.181534781e+01   1   0   0 # O
    262      1   7  1.700000000e+00 -1.753117597e+01 -8.402486824e+00  1.589345302e+01   1   0   0 # Cw
    263      1   7  1.700000000e+00 -1.383617597e+01 -8.402486824e+00  1.589345302e+01   1   0   0 # Cw
    264      1   5 -1.150119771e+00 -1.569715488e+01 -4.602955929e+00  1.835261194e+01   1   0   0 # Oh
    265      1   2  1.430000000e+00 -1.939259824e+01 -9.763845910e+00  2.078900087e+01   1   0   0 # Ca
    266      1   1 -1.290119771e+00 -1.326065589e+01 -6.974175650e+00  1.411739380e+01   1   0   0 # O
    267      1   1 -1.290119771e+00 -1.762527698e+01 -5.663030628e+00  2.073890689e+01   1   0   0 # O
    268      1   1 -1.290119771e+00 -1.813805589e+01 -6.974175650e+00  1.411739380e+01   1   0   0 # O
    269      1   1 -1.290119771e+00 -1.393232331e+01 -8.279741332e+00  1.181534781e+01   1   0   0 # O
    270      1   3  1.720000000e+00 -1.727342589e+01 -6.974175650e+00  1.266011444e+01   1   0   0 # Si
    271      1   2  1.430000000e+00 -1.569759824e+01 -9.763845911e+00  1.138499500e+01   1   0   0 # Ca
    272      1   3  1.720000000e+00 -1.786462589e+01 -6.974175651e+00  1.985543128e+01   1   0   0 # Si
    273      1   1 -1.290119771e+00 -1.691870589e+01 -6.974175650e+00  1.844369190e+01   1   0   0 # O
    274      1   1 -1.290119771e+00 -1.381408331e+01 -8.279741332e+00  2.073890689e+01   1   0   0 # O
    275      1   1 -1.290119771e+00 -1.569935589e+01 -6.974175650e+00  1.313828423e+01   1   0   0 # O
    276      1   1 -1.290119771e+00 -1.381203698e+01 -5.663030629e+00  2.073890689e+01   1   0   0 # O
    277      1   1 -1.290119771e+00 -1.393027698e+01 -5.663030628e+00  1.181534781e+01   1   0   0 # O
    278      1   3  1.720000000e+00 -1.416962589e+01 -6.974175650e+00  1.266011444e+01   1   0   0 # Si