LAMMPS data file generated by STL2LMP v6.2 / 15 Feb 2020 on Sat Feb 15 20:18:39 2020

   8665 atoms
   3492 bonds
   1189 angles

   9 atom types
   4 bond types
   1 angle types

 -4.112318398e+01  1.060681602e+01 xlo xhi
 -2.306134546e+01 -7.439454570e-01 ylo yhi
 -3.415500000e+01  3.415500000e+01 zlo zhi
  1.476600000e+01  0.000000000e+00  0.000000000e+00 xy xz yz

Masses

   1  15.999000 # O
   2  40.078000 # Ca
   3  28.085000 # Si
   4   1.007940 # H
   5  15.999000 # Oh
   6  15.999000 # Ow
   7  40.078000 # Cw
   8   1.007940 # Hw
   9  15.999000 # Ob

Pair Coeffs

   1 0.0000000000e+00 0.0000000000e+00 # O
   2 0.0000000000e+00 0.0000000000e+00 # Ca
   3 0.0000000000e+00 0.0000000000e+00 # Si
   4 0.0000000000e+00 0.0000000000e+00 # H
   5 0.0000000000e+00 0.0000000000e+00 # Oh
   6 0.0000000000e+00 0.0000000000e+00 # Ow
   7 0.0000000000e+00 0.0000000000e+00 # Cw
   8 0.0000000000e+00 0.0000000000e+00 # Hw
   9 0.0000000000e+00 0.0000000000e+00 # Ob

Bond Coeffs

   1 0.0000e+00 0.0000e+00 # Ow-Hw
   2 0.0000e+00 0.0000e+00 # Oh-H
   3 0.0000e+00 0.0000e+00 # O-Si
   4 0.0000e+00 0.0000e+00 # Oh-Si

Angle Coeffs

   1 0.0000e+00 0.0000e+00 # Hw-Ow-Hw

Atoms # full

      1      1   1 -1.139895833e+00 -1.561749024e+01 -1.961696127e+01  9.353911892e+00   1   0   0 # O
      2      1   2  1.430000000e+00 -1.384482531e+01 -1.813285669e+01 -0.000000000e+00   1   0   0 # Ca
      3      1   5 -9.998958333e-01 -6.465617248e+00 -1.004281293e+00  2.573008870e+00   0   0   0 # Oh
      4      1   1 -1.139895833e+00 -1.572299657e+01 -2.223367197e+01  4.303528110e-01   1   0   0 # O
      5      1   9 -1.139895833e+00 -1.384306766e+01 -2.092252695e+01  7.923956520e+00   1   0   0 # Ob
      6      1   1 -1.139895833e+00 -1.572834024e+01 -1.961696127e+01  4.303528110e-01   1   0   0 # O
      7      1   7  1.700000000e+00 -1.570624758e+01 -1.949421578e+01  4.508458020e+00   1   0   0 # Cw
      8      1   7  1.700000000e+00 -1.940124757e+01 -1.949421578e+01  4.508458020e+00   1   0   0 # Cw
      9      1   5 -9.998958333e-01 -2.774329824e+00 -9.763845910e-01  6.967616940e+00   0   0   0 # Oh
     10      1   2  1.430000000e+00 -1.384482531e+01 -1.813285669e+01  9.404005870e+00   1   0   0 # Ca
     11      1   5 -9.998958333e-01 -1.997676766e+01 -2.092252695e+01  2.732398800e+00   1   0   0 # Oh
     12      1   1 -1.139895833e+00 -1.561214657e+01 -2.223367197e+01  9.353911892e+00   1   0   0 # O
     13      1   9 -1.139895833e+00 -1.509936766e+01 -2.092252695e+01  2.732398800e+00   1   0   0 # Ob
     14      1   5 -9.998958333e-01 -1.860961766e+01 -2.092252695e+01  7.058696900e+00   1   0   0 # Oh
     15      1   1 -1.139895833e+00 -1.930510024e+01 -1.961696127e+01  4.303528110e-01   1   0   0 # O
     16      1   3  1.720000000e+00 -1.596399766e+01 -2.092252695e+01  1.275119440e+00   1   0   0 # Si
     17      1   2  1.430000000e+00 -1.753982531e+01 -1.813285669e+01 -0.000000000e+00   1   0   0 # Ca
     18      1   3  1.720000000e+00 -1.537279766e+01 -2.092252695e+01  8.470436280e+00   1   0   0 # Si
     19      1   5 -9.998958333e-01 -1.631871766e+01 -2.092252695e+01  7.058696900e+00   1   0   0 # Oh
     20      1   1 -1.139895833e+00 -1.942334024e+01 -1.961696127e+01  9.353911892e+00   1   0   0 # O
     21      1   9 -1.139895833e+00 -1.753806766e+01 -2.092252695e+01  1.753289230e+00   1   0   0 # Ob
     22      1   1 -1.139895833e+00 -1.942538657e+01 -2.223367197e+01  9.353911892e+00   1   0   0 # O
     23      1   1 -1.139895833e+00 -1.930714657e+01 -2.223367197e+01  4.303528110e-01   1   0   0 # O
     24      1   3  1.720000000e+00 -1.906779766e+01 -2.092252695e+01  1.275119440e+00   1   0   0 # Si
     25      1   3  1.720000000e+00 -1.965899766e+01 -2.092252695e+01  8.493206270e+00   1   0   0 # Si
     26      1   2  1.430000000e+00 -1.753982531e+01 -1.813285669e+01  9.404005870e+00   1   0   0 # Ca
     27      1   1 -1.139895833e+00 -1.761290273e+01 -1.943842237e+01  2.073890689e+01   1   0   0 # O
     28      1   2  1.430000000e+00 -1.938556766e+01 -2.092252695e+01  1.138499500e+01   1   0   0 # Ca
     29      1   1 -1.139895833e+00 -1.750739640e+01 -1.682171167e+01  1.181534781e+01   1   0   0 # O
     30      1   5 -9.998958333e-01 -1.199796509e+01 -1.711741672e+01  1.618946289e+01   1   0   0 # Oh
     31      1   9 -1.139895833e+00 -1.199732531e+01 -1.813285669e+01  1.930895152e+01   1   0   0 # Ob
     32      1   1 -1.139895833e+00 -1.750205273e+01 -1.943842237e+01  1.181534781e+01   1   0   0 # O
     33      1   7  1.700000000e+00 -1.752414539e+01 -1.956116786e+01  1.589345302e+01   1   0   0 # Cw
     34      1   7  1.700000000e+00 -1.382914539e+01 -1.956116786e+01  1.589345302e+01   1   0   0 # Cw
     35      1   5 -9.998958333e-01 -1.569012430e+01 -1.576163697e+01  1.835261194e+01   1   0   0 # Oh
     36      1   2  1.430000000e+00 -1.938556766e+01 -2.092252695e+01  2.078900087e+01   1   0   0 # Ca
     37      1   5 -9.998958333e-01 -1.325362531e+01 -1.813285669e+01  1.411739380e+01   1   0   0 # Oh
     38      1   1 -1.139895833e+00 -1.761824640e+01 -1.682171167e+01  2.073890689e+01   1   0   0 # O
     39      1   5 -9.998958333e-01 -1.813102531e+01 -1.813285669e+01  1.411739380e+01   1   0   0 # Oh
     40      1   5 -9.998958333e-01 -1.462077531e+01 -1.813285669e+01  1.844369190e+01   1   0   0 # Oh
     41      1   1 -1.139895833e+00 -1.392529273e+01 -1.943842237e+01  1.181534781e+01   1   0   0 # O
     42      1   3  1.720000000e+00 -1.726639530e+01 -1.813285669e+01  1.266011444e+01   1   0   0 # Si
     43      1   2  1.430000000e+00 -1.569056766e+01 -2.092252695e+01  1.138499500e+01   1   0   0 # Ca
     44      1   3  1.720000000e+00 -1.785759531e+01 -1.813285669e+01  1.985543128e+01   1   0   0 # Si
     45      1   5 -9.998958333e-01 -1.691167530e+01 -1.813285669e+01  1.844369190e+01   1   0   0 # Oh
     46      1   1 -1.139895833e+00 -1.380705273e+01 -1.943842237e+01  2.073890689e+01   1   0   0 # O
     47      1   9 -1.139895833e+00 -1.569232531e+01 -1.813285669e+01  1.313828423e+01   1   0   0 # Ob
     48      1   1 -1.139895833e+00 -1.380500640e+01 -1.682171167e+01  2.073890689e+01   1   0   0 # O
     49      1   1 -1.139895833e+00 -1.392324640e+01 -1.682171167e+01  1.181534781e+01   1   0   0 # O
     50      1   3  1.720000000e+00 -1.416259530e+01 -1.813285669e+01  1.266011444e+01   1   0   0 # Si
     51      1   3  1.720000000e+00 -1.357139530e+01 -1.813285669e+01  1.987820127e+01   1   0   0 # Si
     52      1   2  1.430000000e+00 -1.569056766e+01 -2.092252695e+01  2.078900087e+01   1   0   0 # Ca
     53      1   1 -1.139895833e+00 -1.192600553e+01 -1.403762075e+01  9.353911892e+00   1   0   0 # O
     54      1   2  1.430000000e+00 -1.015334060e+01 -1.255351617e+01 -0.000000000e+00   1   0   0 # Ca
     55      1   1 -1.139895833e+00 -1.203151186e+01 -1.665433145e+01  4.303528110e-01   1   0   0 # O
     56      1   5 -9.998958333e-01 -1.754094317e+01 -1.635862640e+01  4.804467890e+00   1   0   0 # Oh
     57      1   5 -9.998958333e-01 -1.015158295e+01 -1.534318643e+01  7.923956520e+00   1   0   0 # Oh
     58      1   1 -1.139895833e+00 -1.203685553e+01 -1.403762075e+01  4.303528110e-01   1   0   0 # O
     59      1   7  1.700000000e+00 -1.201476286e+01 -1.391487526e+01  4.508458020e+00   1   0   0 # Cw
     60      1   7  1.700000000e+00 -1.570976287e+01 -1.391487526e+01  4.508458020e+00   1   0   0 # Cw
     61      1   2  1.430000000e+00 -1.015334060e+01 -1.255351617e+01  9.404005870e+00   1   0   0 # Ca
     62      1   5 -9.998958333e-01 -1.384605566e+01 -1.618008751e+01  4.850007870e+00   1   0   0 # Oh
     63      1   5 -9.998958333e-01 -1.628528295e+01 -1.534318643e+01  2.732398800e+00   1   0   0 # Oh
     64      1   1 -1.139895833e+00 -1.192066186e+01 -1.665433145e+01  9.353911892e+00   1   0   0 # O
     65      1   9 -1.139895833e+00 -1.140788295e+01 -1.534318643e+01  2.732398800e+00   1   0   0 # Ob
     66      1   5 -9.998958333e-01 -1.491813295e+01 -1.534318643e+01  7.058696900e+00   1   0   0 # Oh
     67      1   1 -1.139895833e+00 -1.561361553e+01 -1.403762075e+01  4.303528110e-01   1   0   0 # O
     68      1   3  1.720000000e+00 -1.227251295e+01 -1.534318643e+01  1.275119440e+00   1   0   0 # Si
     69      1   2  1.430000000e+00 -1.384834060e+01 -1.255351617e+01 -0.000000000e+00   1   0   0 # Ca
     70      1   3  1.720000000e+00 -1.168131295e+01 -1.534318643e+01  8.470436280e+00   1   0   0 # Si
     71      1   5 -9.998958333e-01 -1.262723295e+01 -1.534318643e+01  7.058696900e+00   1   0   0 # Oh
     72      1   1 -1.139895833e+00 -1.573185553e+01 -1.403762075e+01  9.353911892e+00   1   0   0 # O
     73      1   9 -1.139895833e+00 -1.384658295e+01 -1.534318643e+01  1.753289230e+00   1   0   0 # Ob
     74      1   1 -1.139895833e+00 -1.573390186e+01 -1.665433145e+01  9.353911892e+00   1   0   0 # O
     75      1   1 -1.139895833e+00 -1.561566186e+01 -1.665433145e+01  4.303528110e-01   1   0   0 # O
     76      1   3  1.720000000e+00 -1.537631295e+01 -1.534318643e+01  1.275119440e+00   1   0   0 # Si
     77      1   3  1.720000000e+00 -1.596751295e+01 -1.534318643e+01  8.493206270e+00   1   0   0 # Si
     78      1   2  1.430000000e+00 -1.384834060e+01 -1.255351617e+01  9.404005870e+00   1   0   0 # Ca
     79      1   1 -1.139895833e+00 -1.392141802e+01 -1.385908185e+01  2.073890689e+01   1   0   0 # O
     80      1   2  1.430000000e+00 -1.569408295e+01 -1.534318643e+01  1.138499500e+01   1   0   0 # Ca
     81      1   5 -9.998958333e-01 -8.307352171e+00 -1.015439975e+01  1.395800387e+01   1   0   0 # Oh
     82      1   1 -1.139895833e+00 -1.381591169e+01 -1.124237115e+01  1.181534781e+01   1   0   0 # O
     83      1   5 -9.998958333e-01 -8.305840596e+00 -1.255351617e+01  1.930895152e+01   1   0   0 # Oh
     84      1   1 -1.139895833e+00 -1.381056802e+01 -1.385908185e+01  1.181534781e+01   1   0   0 # O
     85      1   7  1.700000000e+00 -1.383266068e+01 -1.398182734e+01  1.589345302e+01   1   0   0 # Cw
     86      1   7  1.700000000e+00 -1.013766068e+01 -1.398182734e+01  1.589345302e+01   1   0   0 # Cw
     87      1   5 -9.998958333e-01 -1.199863959e+01 -1.018229645e+01  1.835261194e+01   1   0   0 # Oh
     88      1   2  1.430000000e+00 -1.569408295e+01 -1.534318643e+01  2.078900087e+01   1   0   0 # Ca
     89      1   5 -9.998958333e-01 -9.562140596e+00 -1.255351617e+01  1.411739380e+01   1   0   0 # Oh
     90      1   1 -1.139895833e+00 -1.392676169e+01 -1.124237115e+01  2.073890689e+01   1   0   0 # O
     91      1   5 -9.998958333e-01 -1.443954060e+01 -1.255351617e+01  1.411739380e+01   1   0   0 # Oh
     92      1   5 -9.998958333e-01 -1.092929060e+01 -1.255351617e+01  1.844369190e+01   1   0   0 # Oh
     93      1   1 -1.139895833e+00 -1.023380802e+01 -1.385908185e+01  1.181534781e+01   1   0   0 # O
     94      1   3  1.720000000e+00 -1.357491060e+01 -1.255351617e+01  1.266011444e+01   1   0   0 # Si
     95      1   2  1.430000000e+00 -1.199908295e+01 -1.534318643e+01  1.138499500e+01   1   0   0 # Ca
     96      1   3  1.720000000e+00 -1.416611060e+01 -1.255351617e+01  1.985543128e+01   1   0   0 # Si
     97      1   5 -9.998958333e-01 -1.322019060e+01 -1.255351617e+01  1.844369190e+01   1   0   0 # Oh
     98      1   9 -1.139895833e+00 -1.200084060e+01 -1.255351617e+01  1.313828423e+01   1   0   0 # Ob
     99      1   1 -1.139895833e+00 -1.011352169e+01 -1.124237115e+01  2.073890689e+01   1   0   0 # O
    100      1   1 -1.139895833e+00 -1.023176169e+01 -1.124237115e+01  1.181534781e+01   1   0   0 # O
    101      1   3  1.720000000e+00 -1.047111060e+01 -1.255351617e+01  1.266011444e+01   1   0   0 # Si
    102      1   2  1.430000000e+00 -1.199908295e+01 -1.534318643e+01  2.078900087e+01   1   0   0 # Ca
    103      1   2  1.430000000e+00 -6.461855887e+00 -6.974175650e+00 -0.000000000e+00   1   0   0 # Ca
    104      1   1 -1.139895833e+00 -8.340027148e+00 -1.107499093e+01  4.303528110e-01   1   0   0 # O
    105      1   5 -9.998958333e-01 -1.384945846e+01 -1.077928589e+01  4.804467890e+00   1   0   0 # Oh
    106      1   5 -9.998958333e-01 -6.460098241e+00 -9.763845910e+00  7.923956520e+00   1   0   0 # Oh
    107      1   1 -1.139895833e+00 -8.345370819e+00 -8.458280229e+00  4.303528110e-01   1   0   0 # O
    108      1   7  1.700000000e+00 -8.323278156e+00 -8.335534738e+00  4.508458020e+00   1   0   0 # Cw
    109      1   7  1.700000000e+00 -1.201827816e+01 -8.335534737e+00  4.508458020e+00   1   0   0 # Cw
    110      1   2  1.430000000e+00 -6.461855887e+00 -6.974175650e+00  9.404005870e+00   1   0   0 # Ca
    111      1   5 -9.998958333e-01 -1.015457095e+01 -1.060074699e+01  4.850007870e+00   1   0   0 # Oh
    112      1   5 -9.998958333e-01 -1.259379824e+01 -9.763845910e+00  2.732398800e+00   1   0   0 # Oh
    113      1   1 -1.139895833e+00 -8.229177148e+00 -1.107499093e+01  9.353911892e+00   1   0   0 # O
    114      1   5 -9.998958333e-01 -7.716398241e+00 -9.763845911e+00  2.732398800e+00   1   0   0 # Oh
    115      1   5 -9.998958333e-01 -1.122664824e+01 -9.763845910e+00  7.058696900e+00   1   0   0 # Oh
    116      1   1 -1.139895833e+00 -1.192213082e+01 -8.458280229e+00  4.303528110e-01   1   0   0 # O
    117      1   3  1.720000000e+00 -8.581028241e+00 -9.763845910e+00  1.275119440e+00   1   0   0 # Si
    118      1   2  1.430000000e+00 -1.015685589e+01 -6.974175650e+00 -0.000000000e+00   1   0   0 # Ca
    119      1   5 -9.998958333e-01 -8.935748241e+00 -9.763845910e+00  7.058696900e+00   1   0   0 # Oh
    120      1   1 -1.139895833e+00 -1.204037082e+01 -8.458280229e+00  9.353911892e+00   1   0   0 # O
    121      1   9 -1.139895833e+00 -1.015509824e+01 -9.763845910e+00  1.753289230e+00   1   0   0 # Ob
    122      1   1 -1.139895833e+00 -1.204241715e+01 -1.107499093e+01  9.353911892e+00   1   0   0 # O
    123      1   1 -1.139895833e+00 -1.192417715e+01 -1.107499093e+01  4.303528110e-01   1   0   0 # O
    124      1   3  1.720000000e+00 -1.168482824e+01 -9.763845910e+00  1.275119440e+00   1   0   0 # Si
    125      1   3  1.720000000e+00 -1.227602824e+01 -9.763845911e+00  8.493206270e+00   1   0   0 # Si
    126      1   2  1.430000000e+00 -1.015685589e+01 -6.974175650e+00  9.404005870e+00   1   0   0 # Ca
    127      1   2  1.430000000e+00 -1.200259824e+01 -9.763845910e+00  1.138499500e+01   1   0   0 # Ca
    128      1   5 -9.998958333e-01 -4.615867462e+00 -4.575059227e+00  1.395800387e+01   1   0   0 # Oh
    129      1   1 -1.139895833e+00 -1.012442698e+01 -5.663030628e+00  1.181534781e+01   1   0   0 # O
    130      1   9 -1.139895833e+00 -4.614355887e+00 -6.974175650e+00  1.930895152e+01   1   0   0 # Ob
    131      1   1 -1.139895833e+00 -1.011908331e+01 -8.279741332e+00  1.181534781e+01   1   0   0 # O
    132      1   7  1.700000000e+00 -1.014117597e+01 -8.402486823e+00  1.589345302e+01   1   0   0 # Cw
    133      1   7  1.700000000e+00 -6.446175972e+00 -8.402486824e+00  1.589345302e+01   1   0   0 # Cw
    134      1   2  1.430000000e+00 -1.200259824e+01 -9.763845910e+00  2.078900087e+01   1   0   0 # Ca
    135      1   5 -9.998958333e-01 -8.309883181e+00 -6.137274572e+00  1.623500287e+01   1   0   0 # Oh
    136      1   5 -9.998958333e-01 -5.870655887e+00 -6.974175651e+00  1.411739380e+01   1   0   0 # Oh
    137      1   1 -1.139895833e+00 -1.023527698e+01 -5.663030629e+00  2.073890689e+01   1   0   0 # O
    138      1   5 -9.998958333e-01 -1.074805589e+01 -6.974175650e+00  1.411739380e+01   1   0   0 # Oh
    139      1   5 -9.998958333e-01 -7.237805887e+00 -6.974175650e+00  1.844369190e+01   1   0   0 # Oh
    140      1   1 -1.139895833e+00 -6.542323309e+00 -8.279741332e+00  1.181534781e+01   1   0   0 # O
    141      1   3  1.720000000e+00 -9.883425887e+00 -6.974175651e+00  1.266011444e+01   1   0   0 # Si
    142      1   2  1.430000000e+00 -8.307598242e+00 -9.763845910e+00  1.138499500e+01   1   0   0 # Ca
    143      1   5 -9.998958333e-01 -9.528705886e+00 -6.974175650e+00  1.844369190e+01   1   0   0 # Oh
    144      1   1 -1.139895833e+00 -6.424083308e+00 -8.279741332e+00  2.073890689e+01   1   0   0 # O
    145      1   9 -1.139895833e+00 -8.309355886e+00 -6.974175650e+00  1.313828423e+01   1   0   0 # Ob
    146      1   1 -1.139895833e+00 -6.422036980e+00 -5.663030628e+00  2.073890689e+01   1   0   0 # O
    147      1   1 -1.139895833e+00 -6.540276980e+00 -5.663030628e+00  1.181534781e+01   1   0   0 # O
    148      1   3  1.720000000e+00 -6.779625886e+00 -6.974175650e+00  1.266011444e+01   1   0   0 # Si
    149      1   3  1.720000000e+00 -6.188425887e+00 -6.974175650e+00  1.987820127e+01   1   0   0 # Si
    150      1   2  1.430000000e+00 -8.307598242e+00 -9.763845910e+00  2.078900087e+01   1   0   0 # Ca
    151      1   1 -1.139895833e+00 -4.543036110e+00 -2.878939708e+00  9.353911892e+00   1   0   0 # O
    152      1   2  1.430000000e+00 -2.770371178e+00 -1.394835130e+00 -0.000000000e+00   1   0   0 # Ca
    153      1   1 -1.139895833e+00 -4.648542439e+00 -5.495650412e+00  4.303528110e-01   1   0   0 # O
    154      1   5 -9.998958333e-01 -1.015797375e+01 -5.199945365e+00  4.804467890e+00   1   0   0 # Oh
    155      1   9 -1.139895833e+00 -2.768613532e+00 -4.184505390e+00  7.923956520e+00   1   0   0 # Ob
    156      1   1 -1.139895833e+00 -4.653886110e+00 -2.878939708e+00  4.303528110e-01   1   0   0 # O
    157      1   7  1.700000000e+00 -4.631793447e+00 -2.756194217e+00  4.508458020e+00   1   0   0 # Cw
    158      1   7  1.700000000e+00 -8.326793446e+00 -2.756194217e+00  4.508458020e+00   1   0   0 # Cw
    159      1   5 -9.998958333e-01 -6.465814533e+00 -6.555725112e+00  6.967616940e+00   1   0   0 # Oh
    160      1   2  1.430000000e+00 -2.770371178e+00 -1.394835130e+00  9.404005870e+00   1   0   0 # Ca
    161      1   5 -9.998958333e-01 -8.902313531e+00 -4.184505390e+00  2.732398800e+00   1   0   0 # Oh
    162      1   1 -1.139895833e+00 -4.537692438e+00 -5.495650412e+00  9.353911892e+00   1   0   0 # O
    163      1   5 -9.998958333e-01 -4.024913532e+00 -4.184505391e+00  2.732398800e+00   1   0   0 # Oh
    164      1   5 -9.998958333e-01 -7.535163532e+00 -4.184505390e+00  7.058696900e+00   1   0   0 # Oh
    165      1   1 -1.139895833e+00 -8.230646110e+00 -2.878939709e+00  4.303528110e-01   1   0   0 # O
    166      1   3  1.720000000e+00 -4.889543532e+00 -4.184505390e+00  1.275119440e+00   1   0   0 # Si
    167      1   2  1.430000000e+00 -6.465371177e+00 -1.394835130e+00 -0.000000000e+00   1   0   0 # Ca
    168      1   3  1.720000000e+00 -4.298343532e+00 -4.184505390e+00  8.470436280e+00   1   0   0 # Si
    169      1   5 -9.998958333e-01 -5.244263532e+00 -4.184505390e+00  7.058696900e+00   1   0   0 # Oh
    170      1   1 -1.139895833e+00 -8.348886110e+00 -2.878939708e+00  9.353911892e+00   1   0   0 # O
    171      1   9 -1.139895833e+00 -6.463613532e+00 -4.184505390e+00  1.753289230e+00   1   0   0 # Ob
    172      1   1 -1.139895833e+00 -8.350932439e+00 -5.495650412e+00  9.353911892e+00   1   0   0 # O
    173      1   1 -1.139895833e+00 -8.232692439e+00 -5.495650413e+00  4.303528110e-01   1   0   0 # O
    174      1   3  1.720000000e+00 -7.993343532e+00 -4.184505390e+00  1.275119440e+00   1   0   0 # Si
    175      1   3  1.720000000e+00 -8.584543533e+00 -4.184505390e+00  8.493206270e+00   1   0   0 # Si
    176      1   2  1.430000000e+00 -6.465371177e+00 -1.394835130e+00  9.404005870e+00   1   0   0 # Ca
    177      1   1 -1.139895833e+00 -6.538448600e+00 -2.700400812e+00  2.073890689e+01   1   0   0 # O
    178      1   2  1.430000000e+00 -8.311113532e+00 -4.184505390e+00  1.138499500e+01   1   0   0 # Ca
    179      1   1 -1.139895833e+00 -2.119888111e+01 -2.240105219e+01  1.181534781e+01   2   0   0 # O
    180      1   5 -9.998958333e-01 -1.568944980e+01 -2.269675724e+01  1.618946289e+01   2   0   0 # Oh
    181      1   9 -1.139895833e+00 -9.228711770e-01 -1.394835130e+00  1.930895152e+01   1   0   0 # Ob
    182      1   7  1.700000000e+00 -6.449691263e+00 -2.823146303e+00  1.589345302e+01   1   0   0 # Cw
    183      1   7  1.700000000e+00 -2.754691263e+00 -2.823146304e+00  1.589345302e+01   1   0   0 # Cw
    184      1   5 -9.998958333e-01 -1.938160901e+01 -2.134097749e+01  1.835261194e+01   2   0   0 # Oh
    185      1   2  1.430000000e+00 -8.311113532e+00 -4.184505390e+00  2.078900087e+01   1   0   0 # Ca
    186      1   5 -9.998958333e-01 -2.179171177e+00 -1.394835131e+00  1.411739380e+01   1   0   0 # Oh
    187      1   1 -1.139895833e+00 -2.130973111e+01 -2.240105219e+01  2.073890689e+01   2   0   0 # O
    188      1   5 -9.998958333e-01 -7.056571177e+00 -1.394835130e+00  1.411739380e+01   1   0   0 # Oh
    189      1   5 -9.998958333e-01 -3.546321178e+00 -1.394835130e+00  1.844369190e+01   1   0   0 # Oh
    190      1   1 -1.139895833e+00 -2.850838600e+00 -2.700400812e+00  1.181534781e+01   1   0   0 # O
    191      1   2  1.430000000e+00 -4.616113532e+00 -4.184505390e+00  1.138499500e+01   1   0   0 # Ca
    192      1   3  1.720000000e+00 -6.783141178e+00 -1.394835130e+00  1.985543128e+01   1   0   0 # Si
    193      1   5 -9.998958333e-01 -5.837221177e+00 -1.394835130e+00  1.844369190e+01   1   0   0 # Oh
    194      1   1 -1.139895833e+00 -2.732598599e+00 -2.700400812e+00  2.073890689e+01   1   0   0 # O
    195      1   5 -9.998958333e-01 -4.617871177e+00 -1.394835130e+00  1.313828423e+01   1   0   0 # Oh
    196      1   1 -1.139895833e+00 -1.749649111e+01 -2.240105219e+01  2.073890689e+01   2   0   0 # O
    197      1   1 -1.139895833e+00 -1.761473111e+01 -2.240105219e+01  1.181534781e+01   2   0   0 # O
    198      1   3  1.720000000e+00 -3.088141177e+00 -1.394835130e+00  1.266011444e+01   1   0   0 # Si
    199      1   3  1.720000000e+00 -2.496941177e+00 -1.394835130e+00  1.987820127e+01   1   0   0 # Si
    200      1   2  1.430000000e+00 -4.616113532e+00 -4.184505390e+00  2.078900087e+01   1   0   0 # Ca
    201      1   1 -1.139895833e+00 -2.300749024e+01 -1.961696127e+01  9.353911892e+00   1   0   0 # O
    202      1   2  1.430000000e+00 -2.123482531e+01 -1.813285669e+01 -0.000000000e+00   1   0   0 # Ca
    203      1   1 -1.139895833e+00 -2.311299657e+01 -2.223367197e+01  4.303528110e-01   1   0   0 # O
    204      1   5 -9.998958333e-01 -2.862242788e+01 -2.193796693e+01  4.804467890e+00   1   0   0 # Oh
    205      1   9 -1.139895833e+00 -2.123306766e+01 -2.092252695e+01  7.923956520e+00   1   0   0 # Ob
    206      1   1 -1.139895833e+00 -2.311834024e+01 -1.961696127e+01  4.303528110e-01   1   0   0 # O
    207      1   7  1.700000000e+00 -2.309624757e+01 -1.949421578e+01  4.508458020e+00   1   0   0 # Cw
    208      1   7  1.700000000e+00 -2.679124757e+01 -1.949421578e+01  4.508458020e+00   1   0   0 # Cw
    209      1   2  1.430000000e+00 -2.123482531e+01 -1.813285669e+01  9.404005870e+00   1   0   0 # Ca
    210      1   5 -9.998958333e-01 -2.492754037e+01 -2.175942803e+01  4.850007870e+00   1   0   0 # Oh
    211      1   5 -9.998958333e-01 -2.736676766e+01 -2.092252695e+01  2.732398800e+00   1   0   0 # Oh
    212      1   1 -1.139895833e+00 -2.300214657e+01 -2.223367197e+01  9.353911892e+00   1   0   0 # O
    213      1   5 -9.998958333e-01 -2.248936766e+01 -2.092252695e+01  2.732398800e+00   1   0   0 # Oh
    214      1   5 -9.998958333e-01 -2.599961766e+01 -2.092252695e+01  7.058696900e+00   1   0   0 # Oh
    215      1   1 -1.139895833e+00 -2.669510024e+01 -1.961696127e+01  4.303528110e-01   1   0   0 # O
    216      1   3  1.720000000e+00 -2.335399766e+01 -2.092252695e+01  1.275119440e+00   1   0   0 # Si
    217      1   2  1.430000000e+00 -2.492982531e+01 -1.813285669e+01 -0.000000000e+00   1   0   0 # Ca
    218      1   3  1.720000000e+00 -2.276279766e+01 -2.092252695e+01  8.470436280e+00   1   0   0 # Si
    219      1   5 -9.998958333e-01 -2.370871766e+01 -2.092252695e+01  7.058696900e+00   1   0   0 # Oh
    220      1   1 -1.139895833e+00 -2.681334024e+01 -1.961696127e+01  9.353911892e+00   1   0   0 # O
    221      1   9 -1.139895833e+00 -2.492806766e+01 -2.092252695e+01  1.753289230e+00   1   0   0 # Ob
    222      1   1 -1.139895833e+00 -2.669714657e+01 -2.223367197e+01  4.303528110e-01   1   0   0 # O
    223      1   3  1.720000000e+00 -2.645779766e+01 -2.092252695e+01  1.275119440e+00   1   0   0 # Si
    224      1   2  1.430000000e+00 -2.492982531e+01 -1.813285669e+01  9.404005870e+00   1   0   0 # Ca
    225      1   1 -1.139895833e+00 -2.500290273e+01 -1.943842237e+01  2.073890689e+01   1   0   0 # O
    226      1   2  1.430000000e+00 -2.677556766e+01 -2.092252695e+01  1.138499500e+01   1   0   0 # Ca
    227      1   1 -1.139895833e+00 -2.489739640e+01 -1.682171167e+01  1.181534781e+01   1   0   0 # O
    228      1   5 -9.998958333e-01 -1.938796509e+01 -1.711741672e+01  1.618946289e+01   1   0   0 # Oh
    229      1   9 -1.139895833e+00 -1.938732531e+01 -1.813285669e+01  1.930895152e+01   1   0   0 # Ob
    230      1   1 -1.139895833e+00 -2.489205273e+01 -1.943842237e+01  1.181534781e+01   1   0   0 # O
    231      1   7  1.700000000e+00 -2.491414539e+01 -1.956116786e+01  1.589345302e+01   1   0   0 # Cw
    232      1   7  1.700000000e+00 -2.121914539e+01 -1.956116786e+01  1.589345302e+01   1   0   0 # Cw
    233      1   2  1.430000000e+00 -2.677556766e+01 -2.092252695e+01  2.078900087e+01   1   0   0 # Ca
    234      1   5 -9.998958333e-01 -2.308285260e+01 -1.729595561e+01  1.623500287e+01   1   0   0 # Oh
    235      1   5 -9.998958333e-01 -2.064362531e+01 -1.813285669e+01  1.411739380e+01   1   0   0 # Oh
    236      1   1 -1.139895833e+00 -2.500824640e+01 -1.682171167e+01  2.073890689e+01   1   0   0 # O
    237      1   5 -9.998958333e-01 -2.552102530e+01 -1.813285669e+01  1.411739380e+01   1   0   0 # Oh
    238      1   5 -9.998958333e-01 -2.201077530e+01 -1.813285669e+01  1.844369190e+01   1   0   0 # Oh
    239      1   1 -1.139895833e+00 -2.131529273e+01 -1.943842237e+01  1.181534781e+01   1   0   0 # O
    240      1   3  1.720000000e+00 -2.465639531e+01 -1.813285669e+01  1.266011444e+01   1   0   0 # Si
    241      1   2  1.430000000e+00 -2.308056766e+01 -2.092252695e+01  1.138499500e+01   1   0   0 # Ca
    242      1   3  1.720000000e+00 -2.524759531e+01 -1.813285669e+01  1.985543128e+01   1   0   0 # Si
    243      1   5 -9.998958333e-01 -2.430167530e+01 -1.813285669e+01  1.844369190e+01   1   0   0 # Oh
    244      1   1 -1.139895833e+00 -2.119705273e+01 -1.943842237e+01  2.073890689e+01   1   0   0 # O
    245      1   9 -1.139895833e+00 -2.308232531e+01 -1.813285669e+01  1.313828423e+01   1   0   0 # Ob
    246      1   1 -1.139895833e+00 -2.119500640e+01 -1.682171167e+01  2.073890689e+01   1   0   0 # O
    247      1   1 -1.139895833e+00 -2.131324640e+01 -1.682171167e+01  1.181534781e+01   1   0   0 # O
    248      1   3  1.720000000e+00 -2.155259531e+01 -1.813285669e+01  1.266011444e+01   1   0   0 # Si
    249      1   3  1.720000000e+00 -2.096139531e+01 -1.813285669e+01  1.987820127e+01   1   0   0 # Si
    250      1   2  1.430000000e+00 -2.308056766e+01 -2.092252695e+01  2.078900087e+01   1   0   0 # Ca
    251      1   2  1.430000000e+00 -1.754334060e+01 -1.255351617e+01 -0.000000000e+00   1   0   0 # Ca
    252      1   1 -1.139895833e+00 -1.942151186e+01 -1.665433145e+01  4.303528110e-01   1   0   0 # O
    253      1   5 -9.998958333e-01 -2.493094317e+01 -1.635862640e+01  4.804467890e+00   1   0   0 # Oh
    254      1   5 -9.998958333e-01 -1.754158295e+01 -1.534318643e+01  7.923956520e+00   1   0   0 # Oh
    255      1   1 -1.139895833e+00 -1.942685553e+01 -1.403762075e+01  4.303528110e-01   1   0   0 # O
    256      1   7  1.700000000e+00 -1.940476286e+01 -1.391487526e+01  4.508458020e+00   1   0   0 # Cw
    257      1   7  1.700000000e+00 -2.309976286e+01 -1.391487526e+01  4.508458020e+00   1   0   0 # Cw
    258      1   2  1.430000000e+00 -1.754334060e+01 -1.255351617e+01  9.404005870e+00   1   0   0 # Ca
    259      1   5 -9.998958333e-01 -2.123605566e+01 -1.618008751e+01  4.850007870e+00   1   0   0 # Oh
    260      1   5 -9.998958333e-01 -2.367528295e+01 -1.534318643e+01  2.732398800e+00   1   0   0 # Oh
    261      1   1 -1.139895833e+00 -1.931066186e+01 -1.665433145e+01  9.353911892e+00   1   0   0 # O
    262      1   5 -9.998958333e-01 -1.879788295e+01 -1.534318643e+01  2.732398800e+00   1   0   0 # Oh
    263      1   5 -9.998958333e-01 -2.230813295e+01 -1.534318643e+01  7.058696900e+00   1   0   0 # Oh
    264      1   1 -1.139895833e+00 -2.300361553e+01 -1.403762075e+01  4.303528110e-01   1   0   0 # O
    265      1   3  1.720000000e+00 -1.966251295e+01 -1.534318643e+01  1.275119440e+00   1   0   0 # Si
    266      1   2  1.430000000e+00 -2.123834060e+01 -1.255351617e+01 -0.000000000e+00   1   0   0 # Ca
    267      1   5 -9.998958333e-01 -2.001723295e+01 -1.534318643e+01  7.058696900e+00   1   0   0 # Oh
    268      1   1 -1.139895833e+00 -2.312185553e+01 -1.403762075e+01  9.353911892e+00   1   0   0 # O
    269      1   5 -9.998958333e-01 -2.123658295e+01 -1.534318643e+01  1.753289230e+00   1   0   0 # Oh
    270      1   1 -1.139895833e+00 -2.312390186e+01 -1.665433145e+01  9.353911892e+00   1   0   0 # O
    271      1   3  1.720000000e+00 -2.335751295e+01 -1.534318643e+01  8.493206270e+00   1   0   0 # Si
    272      1   2  1.430000000e+00 -2.123834060e+01 -1.255351617e+01  9.404005870e+00   1   0   0 # Ca
    273      1   1 -1.139895833e+00 -2.131141802e+01 -1.385908185e+01  2.073890689e+01   1   0   0 # O
    274      1   2  1.430000000e+00 -2.308408295e+01 -1.534318643e+01  1.138499500e+01   1   0   0 # Ca
    275      1   1 -1.139895833e+00 -2.120591169e+01 -1.124237115e+01  1.181534781e+01   1   0   0 # O
    276      1   5 -9.998958333e-01 -1.569648038e+01 -1.153807620e+01  1.618946289e+01   1   0   0 # Oh
    277      1   9 -1.139895833e+00 -1.569584060e+01 -1.255351617e+01  1.930895152e+01   1   0   0 # Ob