LAMMPS data file generated by STL2LMP v6.1 / 12 Feb 2020 on Wed Feb 12 18:10:05 2020

   7857 atoms
   3212 bonds
   1189 angles

   9 atom types
   4 bond types
   1 angle types

 -4.112318398e+01  1.060681602e+01 xlo xhi
 -2.306134546e+01 -7.439454570e-01 ylo yhi
 -3.415500000e+01  3.415500000e+01 zlo zhi
  1.476600000e+01  0.000000000e+00  0.000000000e+00 xy xz yz

Masses

   1  15.999000 # O
   2  40.078000 # Ca
   3  28.085000 # Si
   4   1.007940 # H
   5  15.999000 # Oh
   6  15.999000 # Ow
   7  40.078000 # Cw
   8   1.007940 # Hw
   9  15.999000 # Ob

Pair Coeffs

   1 0.0000000000e+00 0.0000000000e+00 # O
   2 0.0000000000e+00 0.0000000000e+00 # Ca
   3 0.0000000000e+00 0.0000000000e+00 # Si
   4 0.0000000000e+00 0.0000000000e+00 # H
   5 0.0000000000e+00 0.0000000000e+00 # Oh
   6 0.0000000000e+00 0.0000000000e+00 # Ow
   7 0.0000000000e+00 0.0000000000e+00 # Cw
   8 0.0000000000e+00 0.0000000000e+00 # Hw
   9 0.0000000000e+00 0.0000000000e+00 # Ob

Bond Coeffs

   1 0.0000e+00 0.0000e+00 # Ow-Hw
   2 0.0000e+00 0.0000e+00 # Oh-H
   3 0.0000e+00 0.0000e+00 # O-Si
   4 0.0000e+00 0.0000e+00 # Oh-Si

Angle Coeffs

   1 0.0000e+00 0.0000e+00 # Hw-Ow-Hw

Atoms # full

      1      1   1 -1.382550813e+00 -1.561749024e+01 -1.961696127e+01  9.353911892e+00   1   0   0 # O
      2      1   2  1.430000000e+00 -1.384482531e+01 -1.813285669e+01 -0.000000000e+00   1   0   0 # Ca
      3      1   5 -1.242550813e+00 -6.465617248e+00 -1.004281293e+00  2.573008870e+00   0   0   0 # Oh
      4      1   9 -1.382550813e+00 -1.384306766e+01 -2.092252695e+01  7.923956520e+00   1   0   0 # Ob
      5      1   7  1.700000000e+00 -1.570624758e+01 -1.949421578e+01  4.508458020e+00   1   0   0 # Cw
      6      1   7  1.700000000e+00 -1.940124757e+01 -1.949421578e+01  4.508458020e+00   1   0   0 # Cw
      7      1   5 -1.242550813e+00 -2.774329824e+00 -9.763845910e-01  6.967616940e+00   0   0   0 # Oh
      8      1   2  1.430000000e+00 -1.384482531e+01 -1.813285669e+01  9.404005870e+00   1   0   0 # Ca
      9      1   5 -1.242550813e+00 -1.997676766e+01 -2.092252695e+01  2.732398800e+00   1   0   0 # Oh
     10      1   1 -1.382550813e+00 -1.561214657e+01 -2.223367197e+01  9.353911892e+00   1   0   0 # O
     11      1   5 -1.242550813e+00 -1.860961766e+01 -2.092252695e+01  7.058696900e+00   1   0   0 # Oh
     12      1   1 -1.382550813e+00 -1.930510024e+01 -1.961696127e+01  4.303528110e-01   1   0   0 # O
     13      1   2  1.430000000e+00 -1.753982531e+01 -1.813285669e+01 -0.000000000e+00   1   0   0 # Ca
     14      1   3  1.720000000e+00 -1.537279766e+01 -2.092252695e+01  8.470436280e+00   1   0   0 # Si
     15      1   1 -1.382550813e+00 -1.942334024e+01 -1.961696127e+01  9.353911892e+00   1   0   0 # O
     16      1   5 -1.242550813e+00 -1.753806766e+01 -2.092252695e+01  1.753289230e+00   1   0   0 # Oh
     17      1   1 -1.382550813e+00 -1.942538657e+01 -2.223367197e+01  9.353911892e+00   1   0   0 # O
     18      1   1 -1.382550813e+00 -1.930714657e+01 -2.223367197e+01  4.303528110e-01   1   0   0 # O
     19      1   3  1.720000000e+00 -1.906779766e+01 -2.092252695e+01  1.275119440e+00   1   0   0 # Si
     20      1   3  1.720000000e+00 -1.965899766e+01 -2.092252695e+01  8.493206270e+00   1   0   0 # Si
     21      1   2  1.430000000e+00 -1.753982531e+01 -1.813285669e+01  9.404005870e+00   1   0   0 # Ca
     22      1   1 -1.382550813e+00 -1.761290273e+01 -1.943842237e+01  2.073890689e+01   1   0   0 # O
     23      1   2  1.430000000e+00 -1.938556766e+01 -2.092252695e+01  1.138499500e+01   1   0   0 # Ca
     24      1   5 -1.242550813e+00 -1.199883688e+01 -1.573374027e+01  1.395800387e+01   1   0   0 # Oh
     25      1   1 -1.382550813e+00 -1.750739640e+01 -1.682171167e+01  1.181534781e+01   1   0   0 # O
     26      1   5 -1.242550813e+00 -1.199732531e+01 -1.813285669e+01  1.930895152e+01   1   0   0 # Oh
     27      1   1 -1.382550813e+00 -1.750205273e+01 -1.943842237e+01  1.181534781e+01   1   0   0 # O
     28      1   7  1.700000000e+00 -1.752414539e+01 -1.956116786e+01  1.589345302e+01   1   0   0 # Cw
     29      1   7  1.700000000e+00 -1.382914539e+01 -1.956116786e+01  1.589345302e+01   1   0   0 # Cw
     30      1   2  1.430000000e+00 -1.938556766e+01 -2.092252695e+01  2.078900087e+01   1   0   0 # Ca
     31      1   5 -1.242550813e+00 -1.569285260e+01 -1.729595561e+01  1.623500287e+01   1   0   0 # Oh
     32      1   5 -1.242550813e+00 -1.325362531e+01 -1.813285669e+01  1.411739380e+01   1   0   0 # Oh
     33      1   1 -1.382550813e+00 -1.761824640e+01 -1.682171167e+01  2.073890689e+01   1   0   0 # O
     34      1   5 -1.242550813e+00 -1.813102531e+01 -1.813285669e+01  1.411739380e+01   1   0   0 # Oh
     35      1   5 -1.242550813e+00 -1.462077531e+01 -1.813285669e+01  1.844369190e+01   1   0   0 # Oh
     36      1   1 -1.382550813e+00 -1.392529273e+01 -1.943842237e+01  1.181534781e+01   1   0   0 # O
     37      1   3  1.720000000e+00 -1.726639530e+01 -1.813285669e+01  1.266011444e+01   1   0   0 # Si
     38      1   2  1.430000000e+00 -1.569056766e+01 -2.092252695e+01  1.138499500e+01   1   0   0 # Ca
     39      1   3  1.720000000e+00 -1.785759531e+01 -1.813285669e+01  1.985543128e+01   1   0   0 # Si
     40      1   9 -1.382550813e+00 -1.569232531e+01 -1.813285669e+01  1.313828423e+01   1   0   0 # Ob
     41      1   1 -1.382550813e+00 -1.392324640e+01 -1.682171167e+01  1.181534781e+01   1   0   0 # O
     42      1   3  1.720000000e+00 -1.416259530e+01 -1.813285669e+01  1.266011444e+01   1   0   0 # Si
     43      1   2  1.430000000e+00 -1.569056766e+01 -2.092252695e+01  2.078900087e+01   1   0   0 # Ca
     44      1   2  1.430000000e+00 -1.015334060e+01 -1.255351617e+01 -0.000000000e+00   1   0   0 # Ca
     45      1   1 -1.382550813e+00 -1.203151186e+01 -1.665433145e+01  4.303528110e-01   1   0   0 # O
     46      1   5 -1.242550813e+00 -1.754094317e+01 -1.635862640e+01  4.804467890e+00   1   0   0 # Oh
     47      1   5 -1.242550813e+00 -1.015158295e+01 -1.534318643e+01  7.923956520e+00   1   0   0 # Oh
     48      1   1 -1.382550813e+00 -1.203685553e+01 -1.403762075e+01  4.303528110e-01   1   0   0 # O
     49      1   7  1.700000000e+00 -1.201476286e+01 -1.391487526e+01  4.508458020e+00   1   0   0 # Cw
     50      1   7  1.700000000e+00 -1.570976287e+01 -1.391487526e+01  4.508458020e+00   1   0   0 # Cw
     51      1   5 -1.242550813e+00 -1.384878395e+01 -1.771440615e+01  6.967616940e+00   1   0   0 # Oh
     52      1   2  1.430000000e+00 -1.015334060e+01 -1.255351617e+01  9.404005870e+00   1   0   0 # Ca
     53      1   5 -1.242550813e+00 -1.140788295e+01 -1.534318643e+01  2.732398800e+00   1   0   0 # Oh
     54      1   5 -1.242550813e+00 -1.491813295e+01 -1.534318643e+01  7.058696900e+00   1   0   0 # Oh
     55      1   1 -1.382550813e+00 -1.561361553e+01 -1.403762075e+01  4.303528110e-01   1   0   0 # O
     56      1   3  1.720000000e+00 -1.227251295e+01 -1.534318643e+01  1.275119440e+00   1   0   0 # Si
     57      1   2  1.430000000e+00 -1.384834060e+01 -1.255351617e+01 -0.000000000e+00   1   0   0 # Ca
     58      1   1 -1.382550813e+00 -1.573185553e+01 -1.403762075e+01  9.353911892e+00   1   0   0 # O
     59      1   9 -1.382550813e+00 -1.384658295e+01 -1.534318643e+01  1.753289230e+00   1   0   0 # Ob
     60      1   1 -1.382550813e+00 -1.573390186e+01 -1.665433145e+01  9.353911892e+00   1   0   0 # O
     61      1   1 -1.382550813e+00 -1.561566186e+01 -1.665433145e+01  4.303528110e-01   1   0   0 # O
     62      1   3  1.720000000e+00 -1.537631295e+01 -1.534318643e+01  1.275119440e+00   1   0   0 # Si
     63      1   3  1.720000000e+00 -1.596751295e+01 -1.534318643e+01  8.493206270e+00   1   0   0 # Si
     64      1   2  1.430000000e+00 -1.384834060e+01 -1.255351617e+01  9.404005870e+00   1   0   0 # Ca
     65      1   2  1.430000000e+00 -1.569408295e+01 -1.534318643e+01  1.138499500e+01   1   0   0 # Ca
     66      1   5 -1.242550813e+00 -8.307352171e+00 -1.015439975e+01  1.395800387e+01   1   0   0 # Oh
     67      1   1 -1.382550813e+00 -1.381591169e+01 -1.124237115e+01  1.181534781e+01   1   0   0 # O
     68      1   5 -1.242550813e+00 -8.305840596e+00 -1.255351617e+01  1.930895152e+01   1   0   0 # Oh
     69      1   1 -1.382550813e+00 -1.381056802e+01 -1.385908185e+01  1.181534781e+01   1   0   0 # O
     70      1   7  1.700000000e+00 -1.383266068e+01 -1.398182734e+01  1.589345302e+01   1   0   0 # Cw
     71      1   7  1.700000000e+00 -1.013766068e+01 -1.398182734e+01  1.589345302e+01   1   0   0 # Cw
     72      1   5 -1.242550813e+00 -1.199863959e+01 -1.018229645e+01  1.835261194e+01   1   0   0 # Oh
     73      1   2  1.430000000e+00 -1.569408295e+01 -1.534318643e+01  2.078900087e+01   1   0   0 # Ca
     74      1   5 -1.242550813e+00 -1.443954060e+01 -1.255351617e+01  1.411739380e+01   1   0   0 # Oh
     75      1   3  1.720000000e+00 -1.357491060e+01 -1.255351617e+01  1.266011444e+01   1   0   0 # Si
     76      1   2  1.430000000e+00 -1.199908295e+01 -1.534318643e+01  1.138499500e+01   1   0   0 # Ca
     77      1   5 -1.242550813e+00 -1.322019060e+01 -1.255351617e+01  1.844369190e+01   1   0   0 # Oh
     78      1   1 -1.382550813e+00 -1.011556802e+01 -1.385908185e+01  2.073890689e+01   1   0   0 # O
     79      1   5 -1.242550813e+00 -1.200084060e+01 -1.255351617e+01  1.313828423e+01   1   0   0 # Oh
     80      1   1 -1.382550813e+00 -1.011352169e+01 -1.124237115e+01  2.073890689e+01   1   0   0 # O
     81      1   3  1.720000000e+00 -9.879910596e+00 -1.255351617e+01  1.987820127e+01   1   0   0 # Si
     82      1   2  1.430000000e+00 -1.199908295e+01 -1.534318643e+01  2.078900087e+01   1   0   0 # Ca
     83      1   1 -1.382550813e+00 -8.234520820e+00 -8.458280228e+00  9.353911892e+00   1   0   0 # O
     84      1   2  1.430000000e+00 -6.461855887e+00 -6.974175650e+00 -0.000000000e+00   1   0   0 # Ca
     85      1   5 -1.242550813e+00 -1.384945846e+01 -1.077928589e+01  4.804467890e+00   1   0   0 # Oh
     86      1   9 -1.382550813e+00 -6.460098241e+00 -9.763845910e+00  7.923956520e+00   1   0   0 # Ob
     87      1   7  1.700000000e+00 -8.323278156e+00 -8.335534738e+00  4.508458020e+00   1   0   0 # Cw
     88      1   7  1.700000000e+00 -1.201827816e+01 -8.335534737e+00  4.508458020e+00   1   0   0 # Cw
     89      1   5 -1.242550813e+00 -1.015729924e+01 -1.213506563e+01  6.967616940e+00   1   0   0 # Oh
     90      1   2  1.430000000e+00 -6.461855887e+00 -6.974175650e+00  9.404005870e+00   1   0   0 # Ca
     91      1   1 -1.382550813e+00 -8.229177148e+00 -1.107499093e+01  9.353911892e+00   1   0   0 # O
     92      1   5 -1.242550813e+00 -7.716398241e+00 -9.763845911e+00  2.732398800e+00   1   0   0 # Oh
     93      1   1 -1.382550813e+00 -1.192213082e+01 -8.458280229e+00  4.303528110e-01   1   0   0 # O
     94      1   2  1.430000000e+00 -1.015685589e+01 -6.974175650e+00 -0.000000000e+00   1   0   0 # Ca
     95      1   3  1.720000000e+00 -7.989828241e+00 -9.763845910e+00  8.470436280e+00   1   0   0 # Si
     96      1   5 -1.242550813e+00 -8.935748241e+00 -9.763845910e+00  7.058696900e+00   1   0   0 # Oh
     97      1   1 -1.382550813e+00 -1.204037082e+01 -8.458280229e+00  9.353911892e+00   1   0   0 # O
     98      1   5 -1.242550813e+00 -1.015509824e+01 -9.763845910e+00  1.753289230e+00   1   0   0 # Oh
     99      1   1 -1.382550813e+00 -1.204241715e+01 -1.107499093e+01  9.353911892e+00   1   0   0 # O
    100      1   1 -1.382550813e+00 -1.192417715e+01 -1.107499093e+01  4.303528110e-01   1   0   0 # O
    101      1   3  1.720000000e+00 -1.168482824e+01 -9.763845910e+00  1.275119440e+00   1   0   0 # Si
    102      1   3  1.720000000e+00 -1.227602824e+01 -9.763845911e+00  8.493206270e+00   1   0   0 # Si
    103      1   2  1.430000000e+00 -1.015685589e+01 -6.974175650e+00  9.404005870e+00   1   0   0 # Ca
    104      1   1 -1.382550813e+00 -1.022993331e+01 -8.279741332e+00  2.073890689e+01   1   0   0 # O
    105      1   2  1.430000000e+00 -1.200259824e+01 -9.763845910e+00  1.138499500e+01   1   0   0 # Ca
    106      1   5 -1.242550813e+00 -4.615867462e+00 -4.575059227e+00  1.395800387e+01   1   0   0 # Oh
    107      1   1 -1.382550813e+00 -1.012442698e+01 -5.663030628e+00  1.181534781e+01   1   0   0 # O
    108      1   9 -1.382550813e+00 -4.614355887e+00 -6.974175650e+00  1.930895152e+01   1   0   0 # Ob
    109      1   1 -1.382550813e+00 -1.011908331e+01 -8.279741332e+00  1.181534781e+01   1   0   0 # O
    110      1   7  1.700000000e+00 -1.014117597e+01 -8.402486823e+00  1.589345302e+01   1   0   0 # Cw
    111      1   7  1.700000000e+00 -6.446175972e+00 -8.402486824e+00  1.589345302e+01   1   0   0 # Cw
    112      1   2  1.430000000e+00 -1.200259824e+01 -9.763845910e+00  2.078900087e+01   1   0   0 # Ca
    113      1   5 -1.242550813e+00 -8.309883181e+00 -6.137274572e+00  1.623500287e+01   1   0   0 # Oh
    114      1   1 -1.382550813e+00 -1.023527698e+01 -5.663030629e+00  2.073890689e+01   1   0   0 # O
    115      1   1 -1.382550813e+00 -6.542323309e+00 -8.279741332e+00  1.181534781e+01   1   0   0 # O
    116      1   3  1.720000000e+00 -9.883425887e+00 -6.974175651e+00  1.266011444e+01   1   0   0 # Si
    117      1   2  1.430000000e+00 -8.307598242e+00 -9.763845910e+00  1.138499500e+01   1   0   0 # Ca
    118      1   3  1.720000000e+00 -1.047462589e+01 -6.974175650e+00  1.985543128e+01   1   0   0 # Si
    119      1   5 -1.242550813e+00 -9.528705886e+00 -6.974175650e+00  1.844369190e+01   1   0   0 # Oh
    120      1   1 -1.382550813e+00 -6.424083308e+00 -8.279741332e+00  2.073890689e+01   1   0   0 # O
    121      1   9 -1.382550813e+00 -8.309355886e+00 -6.974175650e+00  1.313828423e+01   1   0   0 # Ob
    122      1   1 -1.382550813e+00 -6.422036980e+00 -5.663030628e+00  2.073890689e+01   1   0   0 # O
    123      1   1 -1.382550813e+00 -6.540276980e+00 -5.663030628e+00  1.181534781e+01   1   0   0 # O
    124      1   3  1.720000000e+00 -6.779625886e+00 -6.974175650e+00  1.266011444e+01   1   0   0 # Si
    125      1   3  1.720000000e+00 -6.188425887e+00 -6.974175650e+00  1.987820127e+01   1   0   0 # Si
    126      1   2  1.430000000e+00 -8.307598242e+00 -9.763845910e+00  2.078900087e+01   1   0   0 # Ca
    127      1   2  1.430000000e+00 -2.770371178e+00 -1.394835130e+00 -0.000000000e+00   1   0   0 # Ca
    128      1   5 -1.242550813e+00 -1.015797375e+01 -5.199945365e+00  4.804467890e+00   1   0   0 # Oh
    129      1   5 -1.242550813e+00 -2.768613532e+00 -4.184505390e+00  7.923956520e+00   1   0   0 # Oh
    130      1   7  1.700000000e+00 -4.631793447e+00 -2.756194217e+00  4.508458020e+00   1   0   0 # Cw
    131      1   7  1.700000000e+00 -8.326793446e+00 -2.756194217e+00  4.508458020e+00   1   0   0 # Cw
    132      1   2  1.430000000e+00 -2.770371178e+00 -1.394835130e+00  9.404005870e+00   1   0   0 # Ca
    133      1   5 -1.242550813e+00 -6.463086239e+00 -5.021406468e+00  4.850007870e+00   1   0   0 # Oh
    134      1   5 -1.242550813e+00 -8.902313531e+00 -4.184505390e+00  2.732398800e+00   1   0   0 # Oh
    135      1   5 -1.242550813e+00 -4.024913532e+00 -4.184505391e+00  2.732398800e+00   1   0   0 # Oh
    136      1   5 -1.242550813e+00 -7.535163532e+00 -4.184505390e+00  7.058696900e+00   1   0   0 # Oh
    137      1   1 -1.382550813e+00 -8.230646110e+00 -2.878939709e+00  4.303528110e-01   1   0   0 # O
    138      1   2  1.430000000e+00 -6.465371177e+00 -1.394835130e+00 -0.000000000e+00   1   0   0 # Ca
    139      1   1 -1.382550813e+00 -8.348886110e+00 -2.878939708e+00  9.353911892e+00   1   0   0 # O
    140      1   5 -1.242550813e+00 -6.463613532e+00 -4.184505390e+00  1.753289230e+00   1   0   0 # Oh
    141      1   1 -1.382550813e+00 -8.350932439e+00 -5.495650412e+00  9.353911892e+00   1   0   0 # O
    142      1   1 -1.382550813e+00 -8.232692439e+00 -5.495650413e+00  4.303528110e-01   1   0   0 # O
    143      1   3  1.720000000e+00 -7.993343532e+00 -4.184505390e+00  1.275119440e+00   1   0   0 # Si
    144      1   3  1.720000000e+00 -8.584543533e+00 -4.184505390e+00  8.493206270e+00   1   0   0 # Si
    145      1   2  1.430000000e+00 -6.465371177e+00 -1.394835130e+00  9.404005870e+00   1   0   0 # Ca
    146      1   1 -1.382550813e+00 -6.538448600e+00 -2.700400812e+00  2.073890689e+01   1   0   0 # O
    147      1   2  1.430000000e+00 -8.311113532e+00 -4.184505390e+00  1.138499500e+01   1   0   0 # Ca
    148      1   1 -1.382550813e+00 -2.119888111e+01 -2.240105219e+01  1.181534781e+01   2   0   0 # O
    149      1   5 -1.242550813e+00 -1.568944980e+01 -2.269675724e+01  1.618946289e+01   2   0   0 # Oh
    150      1   5 -1.242550813e+00 -9.228711770e-01 -1.394835130e+00  1.930895152e+01   1   0   0 # Oh
    151      1   1 -1.382550813e+00 -6.427598600e+00 -2.700400812e+00  1.181534781e+01   1   0   0 # O
    152      1   7  1.700000000e+00 -6.449691263e+00 -2.823146303e+00  1.589345302e+01   1   0   0 # Cw
    153      1   7  1.700000000e+00 -2.754691263e+00 -2.823146304e+00  1.589345302e+01   1   0   0 # Cw
    154      1   5 -1.242550813e+00 -1.938160901e+01 -2.134097749e+01  1.835261194e+01   2   0   0 # Oh
    155      1   2  1.430000000e+00 -8.311113532e+00 -4.184505390e+00  2.078900087e+01   1   0   0 # Ca
    156      1   5 -1.242550813e+00 -2.179171177e+00 -1.394835131e+00  1.411739380e+01   1   0   0 # Oh
    157      1   1 -1.382550813e+00 -2.130973111e+01 -2.240105219e+01  2.073890689e+01   2   0   0 # O
    158      1   5 -1.242550813e+00 -3.546321178e+00 -1.394835130e+00  1.844369190e+01   1   0   0 # Oh
    159      1   1 -1.382550813e+00 -2.850838600e+00 -2.700400812e+00  1.181534781e+01   1   0   0 # O
    160      1   3  1.720000000e+00 -6.191941177e+00 -1.394835130e+00  1.266011444e+01   1   0   0 # Si
    161      1   2  1.430000000e+00 -4.616113532e+00 -4.184505390e+00  1.138499500e+01   1   0   0 # Ca
    162      1   3  1.720000000e+00 -6.783141178e+00 -1.394835130e+00  1.985543128e+01   1   0   0 # Si
    163      1   1 -1.382550813e+00 -2.732598599e+00 -2.700400812e+00  2.073890689e+01   1   0   0 # O
    164      1   9 -1.382550813e+00 -4.617871177e+00 -1.394835130e+00  1.313828423e+01   1   0   0 # Ob
    165      1   1 -1.382550813e+00 -1.749649111e+01 -2.240105219e+01  2.073890689e+01   2   0   0 # O
    166      1   1 -1.382550813e+00 -1.761473111e+01 -2.240105219e+01  1.181534781e+01   2   0   0 # O
    167      1   3  1.720000000e+00 -3.088141177e+00 -1.394835130e+00  1.266011444e+01   1   0   0 # Si
    168      1   3  1.720000000e+00 -2.496941177e+00 -1.394835130e+00  1.987820127e+01   1   0   0 # Si
    169      1   2  1.430000000e+00 -4.616113532e+00 -4.184505390e+00  2.078900087e+01   1   0   0 # Ca
    170      1   2  1.430000000e+00 -2.123482531e+01 -1.813285669e+01 -0.000000000e+00   1   0   0 # Ca
    171      1   5 -1.242550813e+00 -1.385561725e+01 -1.004281294e+00  2.573008870e+00   0   0   0 # Oh
    172      1   5 -1.242550813e+00 -2.123306766e+01 -2.092252695e+01  7.923956520e+00   1   0   0 # Oh
    173      1   7  1.700000000e+00 -2.309624757e+01 -1.949421578e+01  4.508458020e+00   1   0   0 # Cw
    174      1   7  1.700000000e+00 -2.679124757e+01 -1.949421578e+01  4.508458020e+00   1   0   0 # Cw
    175      1   2  1.430000000e+00 -2.123482531e+01 -1.813285669e+01  9.404005870e+00   1   0   0 # Ca
    176      1   5 -1.242550813e+00 -2.492754037e+01 -2.175942803e+01  4.850007870e+00   1   0   0 # Oh
    177      1   1 -1.382550813e+00 -2.669510024e+01 -1.961696127e+01  4.303528110e-01   1   0   0 # O
    178      1   2  1.430000000e+00 -2.492982531e+01 -1.813285669e+01 -0.000000000e+00   1   0   0 # Ca
    179      1   5 -1.242550813e+00 -2.370871766e+01 -2.092252695e+01  7.058696900e+00   1   0   0 # Oh
    180      1   1 -1.382550813e+00 -2.681334024e+01 -1.961696127e+01  9.353911892e+00   1   0   0 # O
    181      1   5 -1.242550813e+00 -2.492806766e+01 -2.092252695e+01  1.753289230e+00   1   0   0 # Oh
    182      1   1 -1.382550813e+00 -2.681538657e+01 -2.223367197e+01  9.353911892e+00   1   0   0 # O
    183      1   1 -1.382550813e+00 -2.669714657e+01 -2.223367197e+01  4.303528110e-01   1   0   0 # O
    184      1   3  1.720000000e+00 -2.645779766e+01 -2.092252695e+01  1.275119440e+00   1   0   0 # Si
    185      1   3  1.720000000e+00 -2.704899766e+01 -2.092252695e+01  8.493206270e+00   1   0   0 # Si
    186      1   2  1.430000000e+00 -2.492982531e+01 -1.813285669e+01  9.404005870e+00   1   0   0 # Ca
    187      1   1 -1.382550813e+00 -2.500290273e+01 -1.943842237e+01  2.073890689e+01   1   0   0 # O
    188      1   2  1.430000000e+00 -2.677556766e+01 -2.092252695e+01  1.138499500e+01   1   0   0 # Ca
    189      1   5 -1.242550813e+00 -1.938883688e+01 -1.573374027e+01  1.395800387e+01   1   0   0 # Oh
    190      1   5 -1.242550813e+00 -1.938732531e+01 -1.813285669e+01  1.930895152e+01   1   0   0 # Oh
    191      1   7  1.700000000e+00 -2.491414539e+01 -1.956116786e+01  1.589345302e+01   1   0   0 # Cw
    192      1   7  1.700000000e+00 -2.121914539e+01 -1.956116786e+01  1.589345302e+01   1   0   0 # Cw
    193      1   5 -1.242550813e+00 -2.308012430e+01 -1.576163697e+01  1.835261194e+01   1   0   0 # Oh
    194      1   2  1.430000000e+00 -2.677556766e+01 -2.092252695e+01  2.078900087e+01   1   0   0 # Ca
    195      1   1 -1.382550813e+00 -2.500824640e+01 -1.682171167e+01  2.073890689e+01   1   0   0 # O
    196      1   5 -1.242550813e+00 -2.201077530e+01 -1.813285669e+01  1.844369190e+01   1   0   0 # Oh
    197      1   1 -1.382550813e+00 -2.131529273e+01 -1.943842237e+01  1.181534781e+01   1   0   0 # O
    198      1   2  1.430000000e+00 -2.308056766e+01 -2.092252695e+01  1.138499500e+01   1   0   0 # Ca
    199      1   3  1.720000000e+00 -2.524759531e+01 -1.813285669e+01  1.985543128e+01   1   0   0 # Si
    200      1   5 -1.242550813e+00 -2.308232531e+01 -1.813285669e+01  1.313828423e+01   1   0   0 # Oh
    201      1   1 -1.382550813e+00 -2.131324640e+01 -1.682171167e+01  1.181534781e+01   1   0   0 # O
    202      1   3  1.720000000e+00 -2.155259531e+01 -1.813285669e+01  1.266011444e+01   1   0   0 # Si
    203      1   2  1.430000000e+00 -2.308056766e+01 -2.092252695e+01  2.078900087e+01   1   0   0 # Ca
    204      1   1 -1.382550813e+00 -1.931600553e+01 -1.403762075e+01  9.353911892e+00   1   0   0 # O
    205      1   2  1.430000000e+00 -1.754334060e+01 -1.255351617e+01 -0.000000000e+00   1   0   0 # Ca
    206      1   1 -1.382550813e+00 -1.942151186e+01 -1.665433145e+01  4.303528110e-01   1   0   0 # O
    207      1   5 -1.242550813e+00 -2.493094317e+01 -1.635862640e+01  4.804467890e+00   1   0   0 # Oh
    208      1   9 -1.382550813e+00 -1.754158295e+01 -1.534318643e+01  7.923956520e+00   1   0   0 # Ob
    209      1   1 -1.382550813e+00 -1.942685553e+01 -1.403762075e+01  4.303528110e-01   1   0   0 # O
    210      1   7  1.700000000e+00 -1.940476286e+01 -1.391487526e+01  4.508458020e+00   1   0   0 # Cw
    211      1   7  1.700000000e+00 -2.309976286e+01 -1.391487526e+01  4.508458020e+00   1   0   0 # Cw
    212      1   2  1.430000000e+00 -1.754334060e+01 -1.255351617e+01  9.404005870e+00   1   0   0 # Ca
    213      1   5 -1.242550813e+00 -2.123605566e+01 -1.618008751e+01  4.850007870e+00   1   0   0 # Oh
    214      1   5 -1.242550813e+00 -2.367528295e+01 -1.534318643e+01  2.732398800e+00   1   0   0 # Oh
    215      1   1 -1.382550813e+00 -1.931066186e+01 -1.665433145e+01  9.353911892e+00   1   0   0 # O
    216      1   5 -1.242550813e+00 -1.879788295e+01 -1.534318643e+01  2.732398800e+00   1   0   0 # Oh
    217      1   5 -1.242550813e+00 -2.230813295e+01 -1.534318643e+01  7.058696900e+00   1   0   0 # Oh
    218      1   3  1.720000000e+00 -1.966251295e+01 -1.534318643e+01  1.275119440e+00   1   0   0 # Si
    219      1   2  1.430000000e+00 -2.123834060e+01 -1.255351617e+01 -0.000000000e+00   1   0   0 # Ca
    220      1   3  1.720000000e+00 -1.907131295e+01 -1.534318643e+01  8.470436280e+00   1   0   0 # Si
    221      1   1 -1.382550813e+00 -2.312185553e+01 -1.403762075e+01  9.353911892e+00   1   0   0 # O
    222      1   5 -1.242550813e+00 -2.123658295e+01 -1.534318643e+01  1.753289230e+00   1   0   0 # Oh
    223      1   1 -1.382550813e+00 -2.312390186e+01 -1.665433145e+01  9.353911892e+00   1   0   0 # O
    224      1   3  1.720000000e+00 -2.335751295e+01 -1.534318643e+01  8.493206270e+00   1   0   0 # Si
    225      1   2  1.430000000e+00 -2.123834060e+01 -1.255351617e+01  9.404005870e+00   1   0   0 # Ca
    226      1   2  1.430000000e+00 -2.308408295e+01 -1.534318643e+01  1.138499500e+01   1   0   0 # Ca
    227      1   5 -1.242550813e+00 -1.569735217e+01 -1.015439975e+01  1.395800387e+01   1   0   0 # Oh
    228      1   5 -1.242550813e+00 -1.569584060e+01 -1.255351617e+01  1.930895152e+01   1   0   0 # Oh
    229      1   7  1.700000000e+00 -2.122266068e+01 -1.398182734e+01  1.589345302e+01   1   0   0 # Cw
    230      1   7  1.700000000e+00 -1.752766068e+01 -1.398182734e+01  1.589345302e+01   1   0   0 # Cw
    231      1   5 -1.242550813e+00 -1.938863960e+01 -1.018229645e+01  1.835261194e+01   1   0   0 # Oh
    232      1   2  1.430000000e+00 -2.308408295e+01 -1.534318643e+01  2.078900087e+01   1   0   0 # Ca
    233      1   1 -1.382550813e+00 -1.762380802e+01 -1.385908185e+01  1.181534781e+01   1   0   0 # O
    234      1   2  1.430000000e+00 -1.938908295e+01 -1.534318643e+01  1.138499500e+01   1   0   0 # Ca
    235      1   5 -1.242550813e+00 -2.061019060e+01 -1.255351617e+01  1.844369190e+01   1   0   0 # Oh
    236      1   1 -1.382550813e+00 -1.750556802e+01 -1.385908185e+01  2.073890689e+01   1   0   0 # O
    237      1   5 -1.242550813e+00 -1.939084060e+01 -1.255351617e+01  1.313828423e+01   1   0   0 # Oh
    238      1   1 -1.382550813e+00 -1.750352169e+01 -1.124237115e+01  2.073890689e+01   1   0   0 # O
    239      1   1 -1.382550813e+00 -1.762176169e+01 -1.124237115e+01  1.181534781e+01   1   0   0 # O
    240      1   3  1.720000000e+00 -1.786111060e+01 -1.255351617e+01  1.266011444e+01   1   0   0 # Si
    241      1   3  1.720000000e+00 -1.726991060e+01 -1.255351617e+01  1.987820127e+01   1   0   0 # Si
    242      1   2  1.430000000e+00 -1.938908295e+01 -1.534318643e+01  2.078900087e+01   1   0   0 # Ca
    243      1   1 -1.382550813e+00 -1.562452082e+01 -8.458280229e+00  9.353911892e+00   1   0   0 # O
    244      1   2  1.430000000e+00 -1.385185589e+01 -6.974175651e+00 -0.000000000e+00   1   0   0 # Ca
    245      1   1 -1.382550813e+00 -1.573002715e+01 -1.107499093e+01  4.303528110e-01   1   0   0 # O
    246      1   5 -1.242550813e+00 -2.123945846e+01 -1.077928589e+01  4.804467890e+00   1   0   0 # Oh
    247      1   9 -1.382550813e+00 -1.385009824e+01 -9.763845910e+00  7.923956520e+00   1   0   0 # Ob
    248      1   1 -1.382550813e+00 -1.573537082e+01 -8.458280229e+00  4.303528110e-01   1   0   0 # O
    249      1   7  1.700000000e+00 -1.571327816e+01 -8.335534737e+00  4.508458020e+00   1   0   0 # Cw
    250      1   7  1.700000000e+00 -1.940827816e+01 -8.335534737e+00  4.508458020e+00   1   0   0 # Cw
    251      1   2  1.430000000e+00 -1.385185589e+01 -6.974175651e+00  9.404005870e+00   1   0   0 # Ca
    252      1   5 -1.242550813e+00 -1.754457095e+01 -1.060074699e+01  4.850007870e+00   1   0   0 # Oh
    253      1   1 -1.382550813e+00 -1.561917715e+01 -1.107499093e+01  9.353911892e+00   1   0   0 # O
    254      1   5 -1.242550813e+00 -1.510639824e+01 -9.763845910e+00  2.732398800e+00   1   0   0 # Oh
    255      1   5 -1.242550813e+00 -1.861664824e+01 -9.763845910e+00  7.058696900e+00   1   0   0 # Oh
    256      1   3  1.720000000e+00 -1.597102824e+01 -9.763845910e+00  1.275119440e+00   1   0   0 # Si
    257      1   2  1.430000000e+00 -1.754685589e+01 -6.974175650e+00 -0.000000000e+00   1   0   0 # Ca
    258      1   3  1.720000000e+00 -1.537982824e+01 -9.763845911e+00  8.470436280e+00   1   0   0 # Si
    259      1   1 -1.382550813e+00 -1.943037082e+01 -8.458280228e+00  9.353911892e+00   1   0   0 # O
    260      1   5 -1.242550813e+00 -1.754509824e+01 -9.763845910e+00  1.753289230e+00   1   0   0 # Oh
    261      1   1 -1.382550813e+00 -1.943241715e+01 -1.107499093e+01  9.353911892e+00   1   0   0 # O
    262      1   3  1.720000000e+00 -1.966602824e+01 -9.763845910e+00  8.493206270e+00   1   0   0 # Si
    263      1   2  1.430000000e+00 -1.754685589e+01 -6.974175650e+00  9.404005870e+00   1   0   0 # Ca
    264      1   1 -1.382550813e+00 -1.761993331e+01 -8.279741331e+00  2.073890689e+01   1   0   0 # O
    265      1   2  1.430000000e+00 -1.939259824e+01 -9.763845910e+00  1.138499500e+01   1   0   0 # Ca
    266      1   5 -1.242550813e+00 -1.200499567e+01 -5.958735676e+00  1.618946289e+01   1   0   0 # Oh
    267      1   9 -1.382550813e+00 -1.200435589e+01 -6.974175650e+00  1.930895152e+01   1   0   0 # Ob
    268      1   7  1.700000000e+00 -1.753117597e+01 -8.402486824e+00  1.589345302e+01   1   0   0 # Cw
    269      1   7  1.700000000e+00 -1.383617597e+01 -8.402486824e+00  1.589345302e+01   1   0   0 # Cw
    270      1   5 -1.242550813e+00 -1.569715488e+01 -4.602955929e+00  1.835261194e+01   1   0   0 # Oh
    271      1   2  1.430000000e+00 -1.939259824e+01 -9.763845910e+00  2.078900087e+01   1   0   0 # Ca
    272      1   5 -1.242550813e+00 -1.326065589e+01 -6.974175650e+00  1.411739380e+01   1   0   0 # Oh
    273      1   1 -1.382550813e+00 -1.762527698e+01 -5.663030628e+00  2.073890689e+01   1   0   0 # O
    274      1   1 -1.382550813e+00 -1.393232331e+01 -8.279741332e+00  1.181534781e+01   1   0   0 # O
    275      1   2  1.430000000e+00 -1.569759824e+01 -9.763845911e+00  1.138499500e+01   1   0   0 # Ca
    276      1   3  1.720000000e+00 -1.786462589e+01 -6.974175651e+00  1.985543128e+01   1   0   0 # Si
    277      1   5 -1.242550813e+00 -1.691870589e+01 -6.974175650e+00  1.844369190e+01   1   0   0 # Oh